<VTKFile type="PolyData" version="1.0" byte_order="LittleEndian" header_type="UInt64">
  <PolyData>
    <Piece NumberOfPoints="218" NumberOfVerts="0" NumberOfLines="109" NumberOfStrips="0" NumberOfPolys="0">
      <PointData TCoords="Texture Coordinates">
        <DataArray type="Float64" Name="scalars" format="ascii" RangeMin="0.037792149931" RangeMax="1">
          1 1 1 1 1 1
          1 1 1 1 1 1
          1 1 1 1 1 1
          1 1 1 1 1 1
          1 1 1 1 1 1
          1 1 1 1 1 1
          1 1 1 1 1 1
          1 1 1 1 1 1
          1 1 1 1 1 1
          1 1 1 1 1 1
          1 1 1 1 1 1
          1 1 1 1 1 1
          1 1 1 1 1 1
          1 1 1 1 1 1
          1 1 1 1 1 1
          1 1 1 1 1 1
          1 1 0.037792149931 0.037792149931 0.039920849726 0.039920849726
          0.040770851076 0.040770851076 0.047257348895 0.047257348895 0.051623249426 0.051623249426
          0.055217999965 0.055217999965 0.054677350447 0.054677350447 0.074932098389 0.074932098389
          1 1 1 1 1 1
          1 1 1 1 1 1
          1 1 1 1 0.044747199863 0.044747199863
          1 1 1 1 1 1
          1 1 0.049990549684 0.049990549684 1 1
          1 1 1 1 1 1
          0.056863948703 0.056863948703 1 1 1 1
          1 1 1 1 0.060121549293 0.060121549293
          1 1 1 1 1 1
          0.96394649148 0.96394649148 0.062371950597 0.062371950597 1 1
          1 1 0.89875549078 0.89875549078 0.075465749949 0.075465749949
          1 1 1 1 0.44239524007 0.44239524007
          1 1 1 1 0.85283097625 0.85283097625
          1 1 1 1 1 1
          1 1 1 1 1 1
          1 1 1 1 1 1
          0.95407548547 0.95407548547 0.91802197695 0.91802197695 1 1
          0.96394649148 0.96394649148
        </DataArray>
        <DataArray type="Float32" Name="Texture Coordinates" NumberOfComponents="2" format="ascii" RangeMin="0" RangeMax="1">
          0 0 1 0 0 0
          1 0 0 0 1 0
          0 0 1 0 0 0
          1 0 0 0 1 0
          0 0 1 0 0 0
          1 0 0 0 1 0
          0 0 1 0 0 0
          1 0 0 0 1 0
          0 0 1 0 0 0
          1 0 0 0 1 0
          0 0 1 0 0 0
          1 0 0 0 1 0
          0 0 1 0 0 0
          1 0 0 0 1 0
          0 0 1 0 0 0
          1 0 0 0 1 0
          0 0 1 0 0 0
          1 0 0 0 1 0
          0 0 1 0 0 0
          1 0 0 0 1 0
          0 0 1 0 0 0
          1 0 0 0 1 0
          0 0 1 0 0 0
          1 0 0 0 1 0
          0 0 1 0 0 0
          1 0 0 0 1 0
          0 0 1 0 0 0
          1 0 0 0 1 0
          0 0 1 0 0 0
          1 0 0 0 1 0
          0 0 1 0 0 0
          1 0 0 0 1 0
          0 0 1 0 0 0
          1 0 0 0 1 0
          0 0 1 0 0 0
          1 0 0 0 1 0
          0 0 1 0 0 0
          1 0 0 0 1 0
          0 0 1 0 0 0
          1 0 0 0 1 0
          0 0 1 0 0 0
          1 0 0 0 1 0
          0 0 1 0 0 0
          1 0 0 0 1 0
          0 0 1 0 0 0
          1 0 0 0 1 0
          0 0 1 0 0 0
          1 0 0 0 1 0
          0 0 1 0 0 0
          1 0 0 0 1 0
          0 0 1 0 0 0
          1 0 0 0 1 0
          0 0 1 0 0 0
          1 0 0 0 1 0
          0 0 1 0 0 0
          1 0 0 0 1 0
          0 0 1 0 0 0
          1 0 0 0 1 0
          0 0 1 0 0 0
          1 0 0 0 1 0
          0 0 1 0 0 0
          1 0 0 0 1 0
          0 0 1 0 0 0
          1 0 0 0 1 0
          0 0 1 0 0 0
          1 0 0 0 1 0
          0 0 1 0 0 0
          1 0 0 0 1 0
          0 0 1 0 0 0
          1 0 0 0 1 0
          0 0 1 0 0 0
          1 0 0 0 1 0
          0 0 1 0
        </DataArray>
      </PointData>
      <CellData>
        <DataArray type="Int32" Name="SegmentationId" format="ascii" RangeMin="0" RangeMax="108">
          0 1 2 3 4 5
          6 7 8 9 10 11
          12 13 14 15 16 17
          18 19 20 21 22 23
          24 25 26 27 28 29
          30 31 32 33 34 35
          36 37 38 39 40 41
          42 43 44 45 46 47
          48 49 50 51 52 53
          54 55 56 57 58 59
          60 61 62 63 64 65
          66 67 68 69 70 71
          72 73 74 75 76 77
          78 79 80 81 82 83
          84 85 86 87 88 89
          90 91 92 93 94 95
          96 97 98 99 100 101
          102 103 104 105 106 107
          108
        </DataArray>
        <DataArray type="Int32" Name="Type" format="ascii" RangeMin="-1" RangeMax="-1">
          -1 -1 -1 -1 -1 -1
          -1 -1 -1 -1 -1 -1
          -1 -1 -1 -1 -1 -1
          -1 -1 -1 -1 -1 -1
          -1 -1 -1 -1 -1 -1
          -1 -1 -1 -1 -1 -1
          -1 -1 -1 -1 -1 -1
          -1 -1 -1 -1 -1 -1
          -1 -1 -1 -1 -1 -1
          -1 -1 -1 -1 -1 -1
          -1 -1 -1 -1 -1 -1
          -1 -1 -1 -1 -1 -1
          -1 -1 -1 -1 -1 -1
          -1 -1 -1 -1 -1 -1
          -1 -1 -1 -1 -1 -1
          -1 -1 -1 -1 -1 -1
          -1 -1 -1 -1 -1 -1
          -1 -1 -1 -1 -1 -1
          -1
        </DataArray>
        <DataArray type="Int32" Name="RegionSize" format="ascii" RangeMin="0" RangeMax="726633">
          25 0 0 1 0 3
          1 2 0 0 20 0
          0 8 3 1 0 2
          0 1 0 3 1 5
          0 6 0 12 5 40
          20 0 6 3 0 4
          1 0 1 3 1 0
          0 0 3 3 2 2
          1 4466 1227 1555 2268 2210
          2183 1209 1777 32 6 23
          33 28 37 75 5 1875
          62 53 73 80 27308 88
          91 0 128 20431 269 120
          109 174 10407 1012 478 140
          3944 15418 350 100 2560 178635
          366 16 726633 15 1 8287
          71 222 463 268 756 299
          47 0 4616 2981 1003 125
          2794
        </DataArray>
        <DataArray type="Float64" Name="RegionSpan" format="ascii" RangeMin="1" RangeMax="141.84851074">
          1.4142135624 1.4142135624 1 1.4142135624 1 1
          1.4142135624 1.4142135624 1 1.4142135624 3.1622776602 1
          1 2.8284271247 1.4142135624 1.4142135624 1 1.4142135624
          1 1.4142135624 1 1.4142135624 1.4142135624 6
          1 7 1.4142135624 1.4142135624 6 1.4142135624
          3.1622776602 1 1.4142135624 1.4142135624 1 1
          1.4142135624 1 2 1.4142135624 1.4142135624 1
          1 1 1.4142135624 1.4142135624 1.4142135624 1.4142135624
          1.4142135624 56 44 45 41 48
          40 37 40 1.4142135624 1 3.7416573868
          1.4142135624 3.7416573868 2.4494897428 9.8488578018 1.4142135624 78.492037813
          1.4142135624 2.2360679775 2.4494897428 2.4494897428 80.65977932 1.4142135624
          1.4142135624 1 1.4142135624 66.219332525 2.2360679775 1.4142135624
          1.4142135624 1 141.84851074 4.582575695 3.3166247904 1.4142135624
          13.928388277 87 2.2360679775 11.313708499 9 114.89125293
          20.248456731 7.0710678119 61.725197448 3.1622776602 2 30.594117082
          30.430248109 5.4772255751 28.071337695 1.4142135624 10.677078252 7.0710678119
          36.510272527 1 29.223278392 16.822603841 31.843366656 2.4494897428
          12.328828006
        </DataArray>
      </CellData>
      <Points>
        <DataArray type="Float32" Name="Points" NumberOfComponents="3" format="ascii" RangeMin="9.2195444573" RangeMax="86.602540378">
          -2 -11 21 -3 -11 22
          -4 23 21 -5 24 21
          -4 23 21 -3 23 21
          -2 -10 21 -3 -9 21
          -2 -10 21 -1 -10 21
          -4 24 20 -4 25 20
          -31 0 19 -32 0 20
          -2 -9 20 -3 -8 20
          -2 -9 20 -1 -9 20
          -4 25 19 -5 26 19
          -31 0 19 -30 3 19
          -2 -8 19 -1 -8 19
          -4 26 18 -3 26 18
          -29 3 18 -31 5 18
          -1 -8 18 -2 -7 18
          -31 5 17 -32 6 17
          -30 5 17 -29 5 17
          -3 26 16 -4 27 16
          -31 6 16 -30 6 16
          11 -17 16 10 -16 16
          11 -17 16 12 -17 16
          -30 6 15 -31 7 15
          -2 -7 15 -3 -6 15
          6 -15 15 12 -15 15
          13 -16 15 14 -16 15
          6 -14 14 13 -14 14
          -24 29 12 -25 29 13
          9 6 12 8 6 13
          6 -13 13 12 -13 13
          5 36 11 4 36 12
          -24 29 12 -23 32 12
          -1 27 12 0 27 12
          9 6 12 10 7 12
          12 -13 12 11 -12 12
          13 -13 12 14 -13 12
          5 36 11 5 37 11
          -23 33 11 -24 34 11
          -23 33 11 -22 33 11
          8 8 11 10 8 11
          6 37 10 5 38 10
          -23 34 10 -24 35 10
          -23 34 10 -22 34 10
          8 9 10 9 9 10
          -23 35 9 -22 35 9
          0 2 9 -1 3 9
          6 38 8 5 39 8
          -23 35 8 -24 36 8
          -11 16 -1 -12 17 -1
          -12 17 -3 -13 18 -3
          50 -50 -50 50 6 -50
          50 50 -50 50 6 -50
          -50 -50 -50 -5 -50 -50
          50 -50 50 50 -50 9
          50 50 50 50 2 50
          -50 -50 50 -50 -50 10
          -50 50 -50 -50 13 -50
          -50 50 50 -10 50 50
          -4 24 20 -4 23 21
          -2 -11 21 -2 -10 21
          -29 3 18 -31 0 19
          11 -16 15 11 -17 16
          -22 32 11 -24 29 12
          11 7 11 9 6 12
          1 27 11 5 36 11
          -22 32 11 -23 33 11
          50 6 -50 -5 -50 -50
          -4 25 19 -4 24 20
          -2 -9 20 -2 -11 21
          -30 5 17 -29 3 18
          -23 34 10 -22 32 11
          -5 -50 -50 50 -50 9
          -4 26 18 -4 25 19
          -2 -8 19 -2 -9 20
          -31 5 17 -30 5 17
          -23 35 9 -23 34 10
          50 -50 9 50 2 50
          -3 26 16 -4 26 18
          -1 -8 18 -2 -8 19
          -31 6 16 -31 5 17
          -23 35 8 -23 35 9
          50 2 50 -50 13 -50
          -1 27 12 -3 26 16
          -2 -7 15 -1 -8 18
          -30 6 15 -31 6 16
          -16 23 7 -23 35 8
          -50 13 -50 -50 -50 10
          1 27 11 -1 27 12
          6 -15 15 -2 -7 15
          -29 10 7 -30 6 15
          -50 -50 10 -10 50 50
          8 8 11 1 27 11
          13 -16 15 6 -15 15
          -10 50 50 -29 10 7
          11 7 11 8 8 11
          11 -16 15 13 -16 15
          -29 10 7 -3 -6 9
          6 37 10 11 7 11
          6 -14 14 11 -16 15
          8 9 10 6 37 10
          6 -13 13 6 -14 14
          0 2 9 8 9 10
          13 -13 12 6 -13 13
          6 38 8 0 2 9
          12 -13 12 13 -13 12
          -11 16 -1 6 38 8
          -3 -6 9 12 -13 12
          -3 -6 9 -16 23 7
          -12 17 -3 -11 16 -1
          -16 23 7 -12 17 -3
        </DataArray>
      </Points>
      <Verts>
        <DataArray type="Int64" Name="connectivity" format="ascii" RangeMin="1e+299" RangeMax="-1e+299">
        </DataArray>
        <DataArray type="Int64" Name="offsets" format="ascii" RangeMin="1e+299" RangeMax="-1e+299">
        </DataArray>
      </Verts>
      <Lines>
        <DataArray type="Int64" Name="connectivity" format="ascii" RangeMin="0" RangeMax="217">
          0 1 2 3 4 5
          6 7 8 9 10 11
          12 13 14 15 16 17
          18 19 20 21 22 23
          24 25 26 27 28 29
          30 31 32 33 34 35
          36 37 38 39 40 41
          42 43 44 45 46 47
          48 49 50 51 52 53
          54 55 56 57 58 59
          60 61 62 63 64 65
          66 67 68 69 70 71
          72 73 74 75 76 77
          78 79 80 81 82 83
          84 85 86 87 88 89
          90 91 92 93 94 95
          96 97 98 99 100 101
          102 103 104 105 106 107
          108 109 110 111 112 113
          114 115 116 117 118 119
          120 121 122 123 124 125
          126 127 128 129 130 131
          132 133 134 135 136 137
          138 139 140 141 142 143
          144 145 146 147 148 149
          150 151 152 153 154 155
          156 157 158 159 160 161
          162 163 164 165 166 167
          168 169 170 171 172 173
          174 175 176 177 178 179
          180 181 182 183 184 185
          186 187 188 189 190 191
          192 193 194 195 196 197
          198 199 200 201 202 203
          204 205 206 207 208 209
          210 211 212 213 214 215
          216 217
        </DataArray>
        <DataArray type="Int64" Name="offsets" format="ascii" RangeMin="2" RangeMax="218">
          2 4 6 8 10 12
          14 16 18 20 22 24
          26 28 30 32 34 36
          38 40 42 44 46 48
          50 52 54 56 58 60
          62 64 66 68 70 72
          74 76 78 80 82 84
          86 88 90 92 94 96
          98 100 102 104 106 108
          110 112 114 116 118 120
          122 124 126 128 130 132
          134 136 138 140 142 144
          146 148 150 152 154 156
          158 160 162 164 166 168
          170 172 174 176 178 180
          182 184 186 188 190 192
          194 196 198 200 202 204
          206 208 210 212 214 216
          218
        </DataArray>
      </Lines>
      <Strips>
        <DataArray type="Int64" Name="connectivity" format="ascii" RangeMin="0" RangeMax="217">
        </DataArray>
        <DataArray type="Int64" Name="offsets" format="ascii" RangeMin="2" RangeMax="218">
        </DataArray>
      </Strips>
      <Polys>
        <DataArray type="Int64" Name="connectivity" format="ascii" RangeMin="0" RangeMax="217">
        </DataArray>
        <DataArray type="Int64" Name="offsets" format="ascii" RangeMin="2" RangeMax="218">
        </DataArray>
      </Polys>
    </Piece>
  </PolyData>
</VTKFile>
