<VTKFile type="PolyData" version="1.0" byte_order="LittleEndian" header_type="UInt64">
  <PolyData>
    <Piece NumberOfPoints="248" NumberOfVerts="0" NumberOfLines="124" NumberOfStrips="0" NumberOfPolys="0">
      <PointData TCoords="Texture Coordinates">
        <DataArray type="Float64" Name="scalars" format="ascii" RangeMin="0.037812549621" RangeMax="1">
          1 1 1 1 1 1
          1 1 1 1 1 1
          1 1 1 1 1 1
          1 1 1 1 1 1
          1 1 1 1 1 1
          1 1 1 1 1 1
          1 1 1 1 1 1
          1 1 1 1 1 1
          1 1 1 1 1 1
          1 1 1 1 1 1
          1 1 1 1 1 1
          1 1 1 1 1 1
          1 1 1 1 1 1
          1 1 1 1 1 1
          1 1 1 1 1 1
          1 1 1 1 1 1
          1 1 1 1 1 1
          1 1 1 1 1 1
          1 1 1 1 1 1
          0.037812549621 0.037812549621 0.039948798716 0.039948798716 0.040685649961 0.040685649961
          0.047583149746 0.047583149746 0.051688799635 0.051688799635 0.055140700191 0.055140700191
          0.054755048826 0.054755048826 0.074975199997 0.074975199997 1 1
          1 1 1 1 1 1
          1 1 1 1 1 1
          1 1 1 1 1 1
          1 1 0.04470384866 0.04470384866 1 1
          1 1 1 1 1 1
          1 1 1 1 1 1
          1 1 0.050193699077 0.050193699077 1 1
          1 1 1 1 1 1
          1 1 1 1 0.96347799897 0.96347799897
          0.057126499712 0.057126499712 1 1 1 1
          1 1 0.93964549899 0.93964549899 1 1
          0.99588549137 0.99588549137 0.060141049325 0.060141049325 1 1
          1 1 1 1 0.062328649685 0.062328649685
          1 1 1 1 0.87937051058 0.87937051058
          0.075442351401 0.075442351401 1 1 1 1
          0.42303166166 0.42303166166 1 1 1 1
          0.81420850754 0.81420850754 1 1 1 1
          1 1 1 1 0.99588549137 0.99588549137
          0.93483799696 0.93483799696 0.87448349595 0.87448349595 0.95936349034 0.95936349034
          0.90312349796 0.90312349796
        </DataArray>
        <DataArray type="Float32" Name="Texture Coordinates" NumberOfComponents="2" format="ascii" RangeMin="0" RangeMax="1">
          0 0 1 0 0 0
          1 0 0 0 1 0
          0 0 1 0 0 0
          1 0 0 0 1 0
          0 0 1 0 0 0
          1 0 0 0 1 0
          0 0 1 0 0 0
          1 0 0 0 1 0
          0 0 1 0 0 0
          1 0 0 0 1 0
          0 0 1 0 0 0
          1 0 0 0 1 0
          0 0 1 0 0 0
          1 0 0 0 1 0
          0 0 1 0 0 0
          1 0 0 0 1 0
          0 0 1 0 0 0
          1 0 0 0 1 0
          0 0 1 0 0 0
          1 0 0 0 1 0
          0 0 1 0 0 0
          1 0 0 0 1 0
          0 0 1 0 0 0
          1 0 0 0 1 0
          0 0 1 0 0 0
          1 0 0 0 1 0
          0 0 1 0 0 0
          1 0 0 0 1 0
          0 0 1 0 0 0
          1 0 0 0 1 0
          0 0 1 0 0 0
          1 0 0 0 1 0
          0 0 1 0 0 0
          1 0 0 0 1 0
          0 0 1 0 0 0
          1 0 0 0 1 0
          0 0 1 0 0 0
          1 0 0 0 1 0
          0 0 1 0 0 0
          1 0 0 0 1 0
          0 0 1 0 0 0
          1 0 0 0 1 0
          0 0 1 0 0 0
          1 0 0 0 1 0
          0 0 1 0 0 0
          1 0 0 0 1 0
          0 0 1 0 0 0
          1 0 0 0 1 0
          0 0 1 0 0 0
          1 0 0 0 1 0
          0 0 1 0 0 0
          1 0 0 0 1 0
          0 0 1 0 0 0
          1 0 0 0 1 0
          0 0 1 0 0 0
          1 0 0 0 1 0
          0 0 1 0 0 0
          1 0 0 0 1 0
          0 0 1 0 0 0
          1 0 0 0 1 0
          0 0 1 0 0 0
          1 0 0 0 1 0
          0 0 1 0 0 0
          1 0 0 0 1 0
          0 0 1 0 0 0
          1 0 0 0 1 0
          0 0 1 0 0 0
          1 0 0 0 1 0
          0 0 1 0 0 0
          1 0 0 0 1 0
          0 0 1 0 0 0
          1 0 0 0 1 0
          0 0 1 0 0 0
          1 0 0 0 1 0
          0 0 1 0 0 0
          1 0 0 0 1 0
          0 0 1 0 0 0
          1 0 0 0 1 0
          0 0 1 0 0 0
          1 0 0 0 1 0
          0 0 1 0 0 0
          1 0 0 0 1 0
          0 0 1 0
        </DataArray>
      </PointData>
      <CellData>
        <DataArray type="Int32" Name="SegmentationId" format="ascii" RangeMin="0" RangeMax="123">
          0 1 2 3 4 5
          6 7 8 9 10 11
          12 13 14 15 16 17
          18 19 20 21 22 23
          24 25 26 27 28 29
          30 31 32 33 34 35
          36 37 38 39 40 41
          42 43 44 45 46 47
          48 49 50 51 52 53
          54 55 56 57 58 59
          60 61 62 63 64 65
          66 67 68 69 70 71
          72 73 74 75 76 77
          78 79 80 81 82 83
          84 85 86 87 88 89
          90 91 92 93 94 95
          96 97 98 99 100 101
          102 103 104 105 106 107
          108 109 110 111 112 113
          114 115 116 117 118 119
          120 121 122 123
        </DataArray>
        <DataArray type="Int32" Name="Type" format="ascii" RangeMin="-1" RangeMax="-1">
          -1 -1 -1 -1 -1 -1
          -1 -1 -1 -1 -1 -1
          -1 -1 -1 -1 -1 -1
          -1 -1 -1 -1 -1 -1
          -1 -1 -1 -1 -1 -1
          -1 -1 -1 -1 -1 -1
          -1 -1 -1 -1 -1 -1
          -1 -1 -1 -1 -1 -1
          -1 -1 -1 -1 -1 -1
          -1 -1 -1 -1 -1 -1
          -1 -1 -1 -1 -1 -1
          -1 -1 -1 -1 -1 -1
          -1 -1 -1 -1 -1 -1
          -1 -1 -1 -1 -1 -1
          -1 -1 -1 -1 -1 -1
          -1 -1 -1 -1 -1 -1
          -1 -1 -1 -1 -1 -1
          -1 -1 -1 -1 -1 -1
          -1 -1 -1 -1 -1 -1
          -1 -1 -1 -1 -1 -1
          -1 -1 -1 -1
        </DataArray>
        <DataArray type="Int32" Name="RegionSize" format="ascii" RangeMin="0" RangeMax="724686">
          8 29 0 0 3 0
          0 0 4 6 0 13
          3 2 0 1 1 1
          4 33 0 2 0 0
          4 0 7 0 30 0
          0 0 0 6 1 0
          6 1 0 0 0 4
          0 1 0 2 0 30
          2 1 0 0 1 11
          5 4 0 4407 1205 1581
          2330 2173 2181 1162 1790 5
          0 31 5 5 0 39
          4 5 5 30 1730 34
          61 77 81 28 67 49
          54 29305 67 94 113 120
          58 75 694 18509 95 266
          136 4498 2 458 10165 1519
          432 151 14834 349 17 2642
          179039 465 212 724686 85 258
          9590 480 280 718 580 2955
          2793 561 1696 1814
        </DataArray>
        <DataArray type="Float64" Name="RegionSpan" format="ascii" RangeMin="1" RangeMax="141.92955999">
          1.4142135624 1.4142135624 1.4142135624 1 1.4142135624 1
          1.4142135624 1 1.4142135624 1 1 2.2360679775
          1.4142135624 1.4142135624 1.4142135624 2 2 1.4142135624
          1.4142135624 1.4142135624 1.4142135624 1.4142135624 1 1
          1.4142135624 1 1.4142135624 1 1.4142135624 1.4142135624
          1 1.4142135624 1 7 1.4142135624 1
          1.4142135624 1.4142135624 1 1.4142135624 1 1.4142135624
          1 1.4142135624 1 1.4142135624 1 1.4142135624
          1.4142135624 1.4142135624 1 1 1.4142135624 1.4142135624
          1 1.4142135624 1.4142135624 56 44 45
          41 48 40 36 40 1
          1 3 2.2360679775 6 1 1.4142135624
          1.4142135624 1.4142135624 1.4142135624 1.7320508076 78.492037813 2.2360679775
          1.7320508076 3 2.4494897428 2.4494897428 10.816653826 2.4494897428
          2.4494897428 80.65977932 1.4142135624 1.4142135624 2.2360679775 1.7320508076
          1.4142135624 1 5.4772255751 66.219332525 1.4142135624 2.4494897428
          2.4494897428 14.212670404 3 4.582575695 141.92955999 7.6811457479
          11.489125293 1.4142135624 87.726848798 12.124355653 7.0710678119 7.874007874
          114.89125293 30.066592757 2.4494897428 62.040309477 31.080540536 1.7320508076
          32.310988843 30.149626863 7.1414284285 30.133038347 6.3245553203 37.134889255
          15.684387141 32.341923258 20.420577857 9.9498743711
        </DataArray>
      </CellData>
      <Points>
        <DataArray type="Float32" Name="Points" NumberOfComponents="3" format="ascii" RangeMin="6.4807406984" RangeMax="86.602540378">
          -4 23 21 -5 23 22
          -2 -11 21 -3 -11 22
          -4 24 21 -5 25 21
          -4 24 21 -3 24 21
          -1 -11 21 -2 -10 21
          -1 -11 21 0 -11 21
          -4 25 20 -5 26 20
          -4 25 20 -3 25 20
          -32 1 19 -33 1 20
          -1 -10 20 -1 -9 20
          -4 26 19 -3 26 19
          -32 1 19 -31 3 19
          -1 -9 19 -2 -8 19
          -3 26 18 -4 27 18
          -32 4 18 -33 5 18
          -32 4 18 -30 4 18
          -32 5 17 -30 5 17
          -2 -8 17 -3 -7 17
          -30 5 16 -31 6 16
          13 -17 15 12 -17 16
          -32 6 15 -33 7 15
          12 -16 15 11 -15 15
          12 -16 15 13 -16 15
          -32 7 14 -31 7 14
          13 -15 14 12 -14 14
          13 -15 14 14 -15 14
          11 5 12 10 5 13
          13 -14 13 14 -14 13
          6 36 11 5 36 12
          -24 32 12 -25 33 12
          -24 32 12 -23 32 12
          10 6 12 9 7 12
          10 6 12 11 6 12
          6 -13 12 13 -13 12
          5 37 11 4 38 11
          5 37 11 6 37 11
          -24 33 11 -23 34 11
          10 7 11 9 8 11
          10 7 11 11 7 11
          5 38 10 4 39 10
          5 38 10 6 38 10
          -22 34 10 -23 35 10
          10 8 10 11 8 10
          12 -13 10 11 -12 10
          5 39 9 6 39 9
          -23 35 9 -24 36 9
          8 9 9 9 9 9
          0 2 7 -1 2 8
          6 39 7 5 40 7
          -1 3 7 -2 4 7
          -1 3 7 0 3 7
          -1 4 6 0 4 6
          -1 4 5 -2 5 5
          -12 15 -2 -13 15 -1
          -12 15 -2 -12 16 -2
          -11 16 -3 -12 17 -3
          -13 17 -4 -14 18 -4
          50 -50 -50 50 6 -50
          50 50 -50 50 6 -50
          -50 -50 -50 -5 -50 -50
          50 -50 50 50 -50 9
          50 50 50 50 2 50
          -50 -50 50 -50 -50 10
          -50 50 -50 -50 14 -50
          -50 50 50 -10 50 50
          -4 23 21 -4 24 21
          -2 -11 21 -1 -11 21
          -30 3 18 -32 1 19
          -30 3 18 -32 4 18
          6 -16 15 12 -16 15
          12 -15 14 13 -15 14
          -24 33 11 -24 32 12
          11 5 12 10 6 12
          6 36 11 5 37 11
          0 2 7 -1 3 7
          -11 16 -3 -12 15 -2
          50 6 -50 -5 -50 -50
          -4 25 20 -4 23 21
          -1 -10 20 -2 -11 21
          -32 5 17 -30 3 18
          -22 34 10 -24 33 11
          10 7 11 11 5 12
          0 27 11 6 36 11
          -1 4 6 0 2 7
          -13 17 -4 -11 16 -3
          -5 -50 -50 50 -50 9
          -4 26 19 -4 25 20
          -1 -9 19 -1 -10 20
          -30 5 16 -32 5 17
          -23 35 9 -22 34 10
          10 8 10 10 7 11
          -1 4 5 -1 4 6
          -11 16 1 -13 17 -4
          50 -50 9 50 2 50
          -3 26 18 -4 26 19
          -2 -8 17 -1 -9 19
          -32 6 15 -30 5 16
          -16 23 6 -23 35 9
          7 8 10 10 8 10
          3 2 6 -1 4 5
          50 2 50 -50 14 -50
          0 27 11 -3 26 18
          6 -16 15 -2 -8 17
          -32 7 14 -32 6 15
          -50 14 -50 -50 -50 10
          5 38 10 0 27 11
          13 -17 15 6 -16 15
          -30 10 7 -32 7 14
          -50 -50 10 -10 50 50
          7 8 10 5 38 10
          12 -15 14 13 -17 15
          -10 50 50 -30 10 7
          5 39 9 7 8 10
          13 -14 13 12 -15 14
          -30 10 7 -2 -6 9
          8 9 9 5 39 9
          6 -13 12 13 -14 13
          6 39 7 8 9 9
          12 -13 10 6 -13 12
          3 2 6 6 39 7
          -2 -6 9 12 -13 10
          -2 -6 9 -16 23 6
          -11 16 1 3 2 6
          -16 23 6 -11 16 1
        </DataArray>
      </Points>
      <Verts>
        <DataArray type="Int64" Name="connectivity" format="ascii" RangeMin="1e+299" RangeMax="-1e+299">
        </DataArray>
        <DataArray type="Int64" Name="offsets" format="ascii" RangeMin="1e+299" RangeMax="-1e+299">
        </DataArray>
      </Verts>
      <Lines>
        <DataArray type="Int64" Name="connectivity" format="ascii" RangeMin="0" RangeMax="247">
          0 1 2 3 4 5
          6 7 8 9 10 11
          12 13 14 15 16 17
          18 19 20 21 22 23
          24 25 26 27 28 29
          30 31 32 33 34 35
          36 37 38 39 40 41
          42 43 44 45 46 47
          48 49 50 51 52 53
          54 55 56 57 58 59
          60 61 62 63 64 65
          66 67 68 69 70 71
          72 73 74 75 76 77
          78 79 80 81 82 83
          84 85 86 87 88 89
          90 91 92 93 94 95
          96 97 98 99 100 101
          102 103 104 105 106 107
          108 109 110 111 112 113
          114 115 116 117 118 119
          120 121 122 123 124 125
          126 127 128 129 130 131
          132 133 134 135 136 137
          138 139 140 141 142 143
          144 145 146 147 148 149
          150 151 152 153 154 155
          156 157 158 159 160 161
          162 163 164 165 166 167
          168 169 170 171 172 173
          174 175 176 177 178 179
          180 181 182 183 184 185
          186 187 188 189 190 191
          192 193 194 195 196 197
          198 199 200 201 202 203
          204 205 206 207 208 209
          210 211 212 213 214 215
          216 217 218 219 220 221
          222 223 224 225 226 227
          228 229 230 231 232 233
          234 235 236 237 238 239
          240 241 242 243 244 245
          246 247
        </DataArray>
        <DataArray type="Int64" Name="offsets" format="ascii" RangeMin="2" RangeMax="248">
          2 4 6 8 10 12
          14 16 18 20 22 24
          26 28 30 32 34 36
          38 40 42 44 46 48
          50 52 54 56 58 60
          62 64 66 68 70 72
          74 76 78 80 82 84
          86 88 90 92 94 96
          98 100 102 104 106 108
          110 112 114 116 118 120
          122 124 126 128 130 132
          134 136 138 140 142 144
          146 148 150 152 154 156
          158 160 162 164 166 168
          170 172 174 176 178 180
          182 184 186 188 190 192
          194 196 198 200 202 204
          206 208 210 212 214 216
          218 220 222 224 226 228
          230 232 234 236 238 240
          242 244 246 248
        </DataArray>
      </Lines>
      <Strips>
        <DataArray type="Int64" Name="connectivity" format="ascii" RangeMin="0" RangeMax="247">
        </DataArray>
        <DataArray type="Int64" Name="offsets" format="ascii" RangeMin="2" RangeMax="248">
        </DataArray>
      </Strips>
      <Polys>
        <DataArray type="Int64" Name="connectivity" format="ascii" RangeMin="0" RangeMax="247">
        </DataArray>
        <DataArray type="Int64" Name="offsets" format="ascii" RangeMin="2" RangeMax="248">
        </DataArray>
      </Polys>
    </Piece>
  </PolyData>
</VTKFile>
