<VTKFile type="PolyData" version="1.0" byte_order="LittleEndian" header_type="UInt64">
  <PolyData>
    <Piece NumberOfPoints="140" NumberOfVerts="0" NumberOfLines="70" NumberOfStrips="0" NumberOfPolys="0">
      <PointData TCoords="Texture Coordinates">
        <DataArray type="Float64" Name="scalars" format="ascii" RangeMin="0.019581850618" RangeMax="1">
          1 1 1 1 1 1
          1 1 1 1 1 1
          1 1 1 1 1 1
          1 1 1 1 1 1
          1 1 1 1 1 1
          1 1 1 1 1 1
          1 1 1 1 1 1
          1 1 1 1 1 1
          1 1 1 1 1 1
          1 1 1 1 0.01974390028 0.01974390028
          0.019581850618 0.019581850618 0.019810200669 0.019810200669 0.021779099479 0.021779099479
          0.024344449863 0.024344449863 0.031416999176 0.031416999176 0.038106448948 0.038106448948
          0.047925198451 0.047925198451 1 1 1 1
          1 1 1 1 1 1
          0.6013744995 0.6013744995 1 1 1 1
          0.022189550102 0.022189550102 0.027932549827 0.027932549827 0.5860645026 0.5860645026
          0.5860645026 0.5860645026 1 1 1 1
          1 1 0.52437154949 0.52437154949 0.54592160136 0.54592160136
          0.026884249412 0.026884249412 0.16829900444 0.16829900444 1 1
          1 1 0.6013744995 0.6013744995 0.031665149145 0.031665149145
          0.56891600043 0.56891600043 0.57954300195 0.57954300195 0.18360900134 0.18360900134
          0.037502098829 0.037502098829 0.16177750379 0.16177750379 0.045787898824 0.045787898824
          0.14845900238 0.14845900238 0.05233229883 0.05233229883 0.11483760178 0.11483760178
          0.073882350698 0.073882350698
        </DataArray>
        <DataArray type="Float32" Name="Texture Coordinates" NumberOfComponents="2" format="ascii" RangeMin="0" RangeMax="1">
          0 0 1 0 0 0
          1 0 0 0 1 0
          0 0 1 0 0 0
          1 0 0 0 1 0
          0 0 1 0 0 0
          1 0 0 0 1 0
          0 0 1 0 0 0
          1 0 0 0 1 0
          0 0 1 0 0 0
          1 0 0 0 1 0
          0 0 1 0 0 0
          1 0 0 0 1 0
          0 0 1 0 0 0
          1 0 0 0 1 0
          0 0 1 0 0 0
          1 0 0 0 1 0
          0 0 1 0 0 0
          1 0 0 0 1 0
          0 0 1 0 0 0
          1 0 0 0 1 0
          0 0 1 0 0 0
          1 0 0 0 1 0
          0 0 1 0 0 0
          1 0 0 0 1 0
          0 0 1 0 0 0
          1 0 0 0 1 0
          0 0 1 0 0 0
          1 0 0 0 1 0
          0 0 1 0 0 0
          1 0 0 0 1 0
          0 0 1 0 0 0
          1 0 0 0 1 0
          0 0 1 0 0 0
          1 0 0 0 1 0
          0 0 1 0 0 0
          1 0 0 0 1 0
          0 0 1 0 0 0
          1 0 0 0 1 0
          0 0 1 0 0 0
          1 0 0 0 1 0
          0 0 1 0 0 0
          1 0 0 0 1 0
          0 0 1 0 0 0
          1 0 0 0 1 0
          0 0 1 0 0 0
          1 0 0 0 1 0
          0 0 1 0
        </DataArray>
      </PointData>
      <CellData>
        <DataArray type="Int32" Name="SegmentationId" format="ascii" RangeMin="0" RangeMax="69">
          0 1 2 3 4 5
          6 7 8 9 10 11
          12 13 14 15 16 17
          18 19 20 21 22 23
          24 25 26 27 28 29
          30 31 32 33 34 35
          36 37 38 39 40 41
          42 43 44 45 46 47
          48 49 50 51 52 53
          54 55 56 57 58 59
          60 61 62 63 64 65
          66 67 68 69
        </DataArray>
        <DataArray type="Int32" Name="Type" format="ascii" RangeMin="-1" RangeMax="-1">
          -1 -1 -1 -1 -1 -1
          -1 -1 -1 -1 -1 -1
          -1 -1 -1 -1 -1 -1
          -1 -1 -1 -1 -1 -1
          -1 -1 -1 -1 -1 -1
          -1 -1 -1 -1 -1 -1
          -1 -1 -1 -1 -1 -1
          -1 -1 -1 -1 -1 -1
          -1 -1 -1 -1 -1 -1
          -1 -1 -1 -1 -1 -1
          -1 -1 -1 -1 -1 -1
          -1 -1 -1 -1
        </DataArray>
        <DataArray type="Int32" Name="RegionSize" format="ascii" RangeMin="0" RangeMax="244443">
          14 3 3 14 0 2
          18 11 3 0 0 5
          7 2 0 4 4 4
          1 0 3 7 1 6
          0 0 3 4 2 20946
          3244 925 120 18 26 774
          2560 27 25 41 6 24
          4291 12 18 2765 38324 6295
          5962 80 29 40 32308 14109
          66783 1986 98 63 5280 17734
          23838 20012 6723 186402 3335 92704
          27015 75131 125593 244443
        </DataArray>
        <DataArray type="Float64" Name="RegionSpan" format="ascii" RangeMin="1" RangeMax="142.01760454">
          1.4142135624 1.4142135624 1.4142135624 1.4142135624 1 1.4142135624
          1.4142135624 2 1.4142135624 1.4142135624 1 1.4142135624
          1.4142135624 1.4142135624 1 1 1 1.4142135624
          1.4142135624 1.4142135624 1.4142135624 2.2360679775 1.4142135624 2.2360679775
          1.4142135624 1 1.4142135624 1.4142135624 1.4142135624 87
          74 26 25 13 14 27
          51 1.4142135624 1.4142135624 2.4494897428 1.4142135624 1.7320508076
          14.247806849 2.2360679775 1.7320508076 79.37883849 56.938563382 20.346989949
          11.445523142 2.4494897428 2.4494897428 2.4494897428 29.41088234 21
          107.6568623 19.697715604 1.4142135624 1.4142135624 12.884098727 114.72140167
          22.315913604 22.693611436 21.400934559 142.01760454 32.32645975 89.961102706
          23.853720884 88.572004606 38.75564475 83.624159189
        </DataArray>
      </CellData>
      <Points>
        <DataArray type="Float32" Name="Points" NumberOfComponents="3" format="ascii" RangeMin="23.958297101" RangeMax="86.602540378">
          11 48 39 10 48 40
          11 48 39 10 49 39
          11 49 38 10 50 38
          -10 26 31 -11 26 32
          -10 26 31 -9 26 31
          -9 26 30 -10 27 30
          -44 -5 21 -45 -5 22
          -44 -5 21 -44 -3 21
          -43 -3 20 -44 -2 20
          -45 -2 19 -46 -1 19
          -45 -1 18 -44 -1 18
          -34 45 9 -35 45 10
          35 29 9 34 29 10
          -33 46 9 -34 47 9
          -33 46 9 -32 46 9
          35 29 9 35 30 9
          -33 47 8 -33 48 8
          36 30 8 35 31 8
          -33 48 7 -34 49 7
          34 31 7 33 32 7
          14 48 5 13 48 6
          14 48 5 13 50 5
          33 -41 -12 32 -41 -11
          33 -41 -12 32 -39 -12
          33 -39 -13 32 -38 -13
          33 -39 -13 34 -39 -13
          -20 23 -43 -21 23 -42
          -20 23 -43 -19 24 -43
          -19 24 -44 -20 25 -44
          50 -50 50 -37 -50 50
          -50 -50 -50 24 -50 -50
          50 -50 -50 24 -50 -50
          50 50 -50 50 25 -50
          -50 -50 50 -37 -50 50
          50 50 50 50 36 50
          -50 50 -50 -50 23 -50
          -50 50 50 -50 -1 50
          11 49 38 11 48 39
          -9 26 30 -10 26 31
          -43 -3 20 -44 -5 21
          -34 45 9 -33 46 9
          36 30 8 35 29 9
          23 37 4 14 48 5
          33 -39 -13 33 -41 -12
          -19 24 -44 -20 23 -43
          24 -50 -50 50 25 -50
          -37 -50 50 -8 -50 1
          -2 35 31 11 49 38
          -2 35 31 -9 26 30
          -45 -2 19 -43 -3 20
          -33 47 8 -34 45 9
          34 31 7 36 30 8
          18 -15 -5 33 -39 -13
          -24 28 -24 -19 24 -44
          50 25 -50 -8 -50 1
          10 45 19 -2 35 31
          -45 -1 18 -45 -2 19
          -33 48 7 -33 47 8
          23 37 4 34 31 7
          -8 -50 1 50 36 50
          -38 19 11 -45 -1 18
          -20 33 18 -33 48 7
          10 45 19 23 37 4
          50 36 50 -50 23 -50
          -20 33 18 10 45 19
          -50 23 -50 18 -15 -5
          -38 19 11 -20 33 18
          18 -15 -5 -50 -1 50
          -24 28 -24 -38 19 11
          -50 -1 50 -24 28 -24
        </DataArray>
      </Points>
      <Verts>
        <DataArray type="Int64" Name="connectivity" format="ascii" RangeMin="1e+299" RangeMax="-1e+299">
        </DataArray>
        <DataArray type="Int64" Name="offsets" format="ascii" RangeMin="1e+299" RangeMax="-1e+299">
        </DataArray>
      </Verts>
      <Lines>
        <DataArray type="Int64" Name="connectivity" format="ascii" RangeMin="0" RangeMax="139">
          0 1 2 3 4 5
          6 7 8 9 10 11
          12 13 14 15 16 17
          18 19 20 21 22 23
          24 25 26 27 28 29
          30 31 32 33 34 35
          36 37 38 39 40 41
          42 43 44 45 46 47
          48 49 50 51 52 53
          54 55 56 57 58 59
          60 61 62 63 64 65
          66 67 68 69 70 71
          72 73 74 75 76 77
          78 79 80 81 82 83
          84 85 86 87 88 89
          90 91 92 93 94 95
          96 97 98 99 100 101
          102 103 104 105 106 107
          108 109 110 111 112 113
          114 115 116 117 118 119
          120 121 122 123 124 125
          126 127 128 129 130 131
          132 133 134 135 136 137
          138 139
        </DataArray>
        <DataArray type="Int64" Name="offsets" format="ascii" RangeMin="2" RangeMax="140">
          2 4 6 8 10 12
          14 16 18 20 22 24
          26 28 30 32 34 36
          38 40 42 44 46 48
          50 52 54 56 58 60
          62 64 66 68 70 72
          74 76 78 80 82 84
          86 88 90 92 94 96
          98 100 102 104 106 108
          110 112 114 116 118 120
          122 124 126 128 130 132
          134 136 138 140
        </DataArray>
      </Lines>
      <Strips>
        <DataArray type="Int64" Name="connectivity" format="ascii" RangeMin="0" RangeMax="139">
        </DataArray>
        <DataArray type="Int64" Name="offsets" format="ascii" RangeMin="2" RangeMax="140">
        </DataArray>
      </Strips>
      <Polys>
        <DataArray type="Int64" Name="connectivity" format="ascii" RangeMin="0" RangeMax="139">
        </DataArray>
        <DataArray type="Int64" Name="offsets" format="ascii" RangeMin="2" RangeMax="140">
        </DataArray>
      </Polys>
    </Piece>
  </PolyData>
</VTKFile>
