<VTKFile type="PolyData" version="1.0" byte_order="LittleEndian" header_type="UInt64">
  <PolyData>
    <Piece NumberOfPoints="138" NumberOfVerts="0" NumberOfLines="69" NumberOfStrips="0" NumberOfPolys="0">
      <PointData TCoords="Texture Coordinates">
        <DataArray type="Float64" Name="scalars" format="ascii" RangeMin="0.017576050013" RangeMax="1">
          1 1 1 1 1 1
          1 1 1 1 1 1
          1 1 1 1 1 1
          1 1 1 1 1 1
          1 1 1 1 1 1
          1 1 1 1 1 1
          1 1 1 1 1 1
          1 1 1 1 1 1
          1 1 1 1 1 1
          1 1 0.017576050013 0.017576050013 0.018328250386 0.018328250386
          0.019154749811 0.019154749811 0.021695199423 0.021695199423 0.024328700267 0.024328700267
          0.028735250235 0.028735250235 0.036487851292 0.036487851292 0.048667050898 0.048667050898
          1 1 1 1 1 1
          1 1 1 1 1 1
          1 1 1 1 0.021140850149 0.021140850149
          0.62568050623 0.62568050623 0.62523150444 0.62523150444 1 1
          1 1 0.65396800637 0.65396800637 1 1
          0.54123330116 0.54123330116 0.56952899694 0.56952899694 0.022289399989 0.022289399989
          1 1 0.61264649779 0.61264649779 0.65396800637 0.65396800637
          0.023849899881 0.023849899881 0.58691350371 0.58691350371 0.2796485126 0.2796485126
          0.027397200465 0.027397200465 0.25091201067 0.25091201067 0.034984300844 0.034984300844
          0.23787800223 0.23787800223 0.048236301169 0.048236301169 0.19956000149 0.19956000149
          0.069409351796 0.069409351796 0.15644250065 0.15644250065 0.11076229811 0.11076229811
        </DataArray>
        <DataArray type="Float32" Name="Texture Coordinates" NumberOfComponents="2" format="ascii" RangeMin="0" RangeMax="1">
          0 0 1 0 0 0
          1 0 0 0 1 0
          0 0 1 0 0 0
          1 0 0 0 1 0
          0 0 1 0 0 0
          1 0 0 0 1 0
          0 0 1 0 0 0
          1 0 0 0 1 0
          0 0 1 0 0 0
          1 0 0 0 1 0
          0 0 1 0 0 0
          1 0 0 0 1 0
          0 0 1 0 0 0
          1 0 0 0 1 0
          0 0 1 0 0 0
          1 0 0 0 1 0
          0 0 1 0 0 0
          1 0 0 0 1 0
          0 0 1 0 0 0
          1 0 0 0 1 0
          0 0 1 0 0 0
          1 0 0 0 1 0
          0 0 1 0 0 0
          1 0 0 0 1 0
          0 0 1 0 0 0
          1 0 0 0 1 0
          0 0 1 0 0 0
          1 0 0 0 1 0
          0 0 1 0 0 0
          1 0 0 0 1 0
          0 0 1 0 0 0
          1 0 0 0 1 0
          0 0 1 0 0 0
          1 0 0 0 1 0
          0 0 1 0 0 0
          1 0 0 0 1 0
          0 0 1 0 0 0
          1 0 0 0 1 0
          0 0 1 0 0 0
          1 0 0 0 1 0
          0 0 1 0 0 0
          1 0 0 0 1 0
          0 0 1 0 0 0
          1 0 0 0 1 0
          0 0 1 0 0 0
          1 0 0 0 1 0
        </DataArray>
      </PointData>
      <CellData>
        <DataArray type="Int32" Name="SegmentationId" format="ascii" RangeMin="0" RangeMax="68">
          0 1 2 3 4 5
          6 7 8 9 10 11
          12 13 14 15 16 17
          18 19 20 21 22 23
          24 25 26 27 28 29
          30 31 32 33 34 35
          36 37 38 39 40 41
          42 43 44 45 46 47
          48 49 50 51 52 53
          54 55 56 57 58 59
          60 61 62 63 64 65
          66 67 68
        </DataArray>
        <DataArray type="Int32" Name="Type" format="ascii" RangeMin="-1" RangeMax="-1">
          -1 -1 -1 -1 -1 -1
          -1 -1 -1 -1 -1 -1
          -1 -1 -1 -1 -1 -1
          -1 -1 -1 -1 -1 -1
          -1 -1 -1 -1 -1 -1
          -1 -1 -1 -1 -1 -1
          -1 -1 -1 -1 -1 -1
          -1 -1 -1 -1 -1 -1
          -1 -1 -1 -1 -1 -1
          -1 -1 -1 -1 -1 -1
          -1 -1 -1 -1 -1 -1
          -1 -1 -1
        </DataArray>
        <DataArray type="Int32" Name="RegionSize" format="ascii" RangeMin="0" RangeMax="212537">
          19 4 2 8 4 2
          27 5 5 4 1 15
          11 10 3 3 2 1
          5 4 3 0 11 3
          3 13 3 3 3725 8125
          610 198 42 71 486 1885
          34 19 53 38 28 20
          21 27 4049 4632 3376 80
          74 2802 91 16971 9720 6335
          232 13139 2919 20183 19723 3922
          61309 160 157784 6576 197887 34591
          212537 50256 185327
        </DataArray>
        <DataArray type="Float64" Name="RegionSpan" format="ascii" RangeMin="1" RangeMax="147.52965804">
          1.4142135624 1.4142135624 1.4142135624 1.4142135624 1 1.4142135624
          1.4142135624 1 1.4142135624 1.4142135624 1.4142135624 1.4142135624
          1.4142135624 2 1.4142135624 1.4142135624 1.4142135624 1.4142135624
          1.4142135624 1 1.4142135624 1.4142135624 1.4142135624 1.4142135624
          1.4142135624 1.4142135624 1.4142135624 1.4142135624 54 55
          46 29 18 19 27 47
          1.7320508076 1.4142135624 1.7320508076 2.4494897428 1.4142135624 1.7320508076
          1.4142135624 1.4142135624 70.292247083 15.556349186 9.2736184955 1.4142135624
          1.7320508076 11.575836903 2.4494897428 22.29349681 17.549928775 84.059502735
          3 21.1896201 13.747727085 147.52965804 19.442222095 17.349351573
          115.26057435 14.456832295 141.64744968 18.708286934 101.98039027 19.442222095
          81.221918224 31.701734968 49.739320462
        </DataArray>
      </CellData>
      <Points>
        <DataArray type="Float32" Name="Points" NumberOfComponents="3" format="ascii" RangeMin="12.806248475" RangeMax="86.602540378">
          7 43 33 6 43 34
          7 43 33 6 44 33
          6 44 32 5 45 32
          -10 24 25 -11 24 26
          -10 24 25 -10 25 25
          -10 25 24 -11 26 24
          -41 -2 20 -42 -2 21
          -41 -2 20 -41 -1 20
          -40 -1 19 -41 0 19
          -40 0 18 -41 1 18
          -42 1 16 -43 2 16
          -31 43 9 -32 43 10
          26 28 9 25 28 10
          -31 43 9 -31 45 9
          26 28 9 25 29 9
          -30 45 8 -31 46 8
          26 29 8 25 30 8
          -31 46 7 -32 47 7
          8 43 6 7 43 7
          8 43 6 8 44 6
          9 44 5 8 45 5
          8 45 3 7 46 3
          22 -24 -7 21 -24 -6
          22 -24 -7 21 -23 -7
          22 -23 -8 21 -22 -8
          -17 23 -32 -18 23 -31
          -17 23 -32 -18 24 -32
          -17 24 -33 -18 25 -33
          50 -50 -50 -4 -50 -50
          50 -50 50 50 -50 -5
          -50 -50 -50 -4 -50 -50
          50 50 -50 50 21 -50
          -50 -50 50 -32 -50 50
          50 50 50 50 31 50
          -50 50 -50 -50 23 -50
          -50 50 50 -50 3 50
          6 44 32 7 43 33
          -10 25 24 -10 24 25
          -40 -1 19 -41 -2 20
          -30 45 8 -31 43 9
          26 29 8 26 28 9
          9 44 5 8 43 6
          22 -23 -8 22 -24 -7
          -17 24 -33 -17 23 -32
          -4 -50 -50 50 -50 -5
          5 40 17 6 44 32
          -4 32 25 -10 25 24
          -40 0 18 -40 -1 19
          -31 46 7 -30 45 8
          16 34 5 26 29 8
          8 45 3 9 44 5
          12 -4 -2 22 -23 -8
          -23 28 -17 -17 24 -33
          50 -50 -5 50 21 -50
          -42 1 16 -40 0 18
          -19 30 14 -31 46 7
          16 34 5 8 45 3
          50 21 -50 -32 -50 50
          -34 18 11 -42 1 16
          5 40 17 16 34 5
          -32 -50 50 50 31 50
          -4 32 25 5 40 17
          50 31 50 -50 23 -50
          -19 30 14 -4 32 25
          -50 23 -50 -50 3 50
          -34 18 11 -19 30 14
          -50 3 50 12 -4 -2
          -23 28 -17 -34 18 11
          12 -4 -2 -23 28 -17
        </DataArray>
      </Points>
      <Verts>
        <DataArray type="Int64" Name="connectivity" format="ascii" RangeMin="1e+299" RangeMax="-1e+299">
        </DataArray>
        <DataArray type="Int64" Name="offsets" format="ascii" RangeMin="1e+299" RangeMax="-1e+299">
        </DataArray>
      </Verts>
      <Lines>
        <DataArray type="Int64" Name="connectivity" format="ascii" RangeMin="0" RangeMax="137">
          0 1 2 3 4 5
          6 7 8 9 10 11
          12 13 14 15 16 17
          18 19 20 21 22 23
          24 25 26 27 28 29
          30 31 32 33 34 35
          36 37 38 39 40 41
          42 43 44 45 46 47
          48 49 50 51 52 53
          54 55 56 57 58 59
          60 61 62 63 64 65
          66 67 68 69 70 71
          72 73 74 75 76 77
          78 79 80 81 82 83
          84 85 86 87 88 89
          90 91 92 93 94 95
          96 97 98 99 100 101
          102 103 104 105 106 107
          108 109 110 111 112 113
          114 115 116 117 118 119
          120 121 122 123 124 125
          126 127 128 129 130 131
          132 133 134 135 136 137
        </DataArray>
        <DataArray type="Int64" Name="offsets" format="ascii" RangeMin="2" RangeMax="138">
          2 4 6 8 10 12
          14 16 18 20 22 24
          26 28 30 32 34 36
          38 40 42 44 46 48
          50 52 54 56 58 60
          62 64 66 68 70 72
          74 76 78 80 82 84
          86 88 90 92 94 96
          98 100 102 104 106 108
          110 112 114 116 118 120
          122 124 126 128 130 132
          134 136 138
        </DataArray>
      </Lines>
      <Strips>
        <DataArray type="Int64" Name="connectivity" format="ascii" RangeMin="0" RangeMax="137">
        </DataArray>
        <DataArray type="Int64" Name="offsets" format="ascii" RangeMin="2" RangeMax="138">
        </DataArray>
      </Strips>
      <Polys>
        <DataArray type="Int64" Name="connectivity" format="ascii" RangeMin="0" RangeMax="137">
        </DataArray>
        <DataArray type="Int64" Name="offsets" format="ascii" RangeMin="2" RangeMax="138">
        </DataArray>
      </Polys>
    </Piece>
  </PolyData>
</VTKFile>
