<VTKFile type="PolyData" version="1.0" byte_order="LittleEndian" header_type="UInt64">
  <PolyData>
    <Piece NumberOfPoints="196" NumberOfVerts="0" NumberOfLines="98" NumberOfStrips="0" NumberOfPolys="0">
      <PointData TCoords="Texture Coordinates">
        <DataArray type="Float64" Name="scalars" format="ascii" RangeMin="0.024350849912" RangeMax="1">
          1 1 1 1 1 1
          1 1 1 1 1 1
          1 1 1 1 1 1
          1 1 1 1 1 1
          1 1 1 1 1 1
          1 1 1 1 1 1
          1 1 1 1 1 1
          1 1 1 1 1 1
          1 1 1 1 1 1
          1 1 1 1 1 1
          1 1 1 1 1 1
          1 1 1 1 1 1
          1 1 1 1 1 1
          1 1 1 1 1 1
          1 1 1 1 0.024350849912 0.024350849912
          0.028973449953 0.028973449953 0.027127599344 0.027127599344 0.02689659968 0.02689659968
          0.035059900954 0.035059900954 0.041462350637 0.041462350637 0.050310099497 0.050310099497
          0.061650000513 0.061650000513 1 1 1 1
          1 1 1 1 1 1
          1 1 1 1 1 1
          1 1 1 1 1 1
          0.028777899221 0.028777899221 1 1 0.63941599429 0.63941599429
          1 1 1 1 1 1
          0.66803899407 0.66803899407 0.66803899407 0.66803899407 1 1
          0.5906829983 0.5906829983 0.59791500121 0.59791500121 0.031009699218 0.031009699218
          0.63941599429 0.63941599429 1 1 1 1
          1 1 0.30707849562 0.30707849562 1 1
          0.035044450313 0.035044450313 0.27845549583 0.27845549583 0.5906829983 0.5906829983
          1 1 0.81560799479 0.81560799479 0.81560799479 0.81560799479
          0.042557951063 0.042557951063 0.27211950719 0.27211950719 0.17405200005 0.17405200005
          0.63220900297 0.63220900297 0.44868800044 0.44868800044 0.05142140016 0.05142140016
          0.26528900862 0.26528900862 0.063016550615 0.063016550615 0.23012400419 0.23012400419
          0.11896290258 0.11896290258 0.18128400296 0.18128400296
        </DataArray>
        <DataArray type="Float32" Name="Texture Coordinates" NumberOfComponents="2" format="ascii" RangeMin="0" RangeMax="1">
          0 0 1 0 0 0
          1 0 0 0 1 0
          0 0 1 0 0 0
          1 0 0 0 1 0
          0 0 1 0 0 0
          1 0 0 0 1 0
          0 0 1 0 0 0
          1 0 0 0 1 0
          0 0 1 0 0 0
          1 0 0 0 1 0
          0 0 1 0 0 0
          1 0 0 0 1 0
          0 0 1 0 0 0
          1 0 0 0 1 0
          0 0 1 0 0 0
          1 0 0 0 1 0
          0 0 1 0 0 0
          1 0 0 0 1 0
          0 0 1 0 0 0
          1 0 0 0 1 0
          0 0 1 0 0 0
          1 0 0 0 1 0
          0 0 1 0 0 0
          1 0 0 0 1 0
          0 0 1 0 0 0
          1 0 0 0 1 0
          0 0 1 0 0 0
          1 0 0 0 1 0
          0 0 1 0 0 0
          1 0 0 0 1 0
          0 0 1 0 0 0
          1 0 0 0 1 0
          0 0 1 0 0 0
          1 0 0 0 1 0
          0 0 1 0 0 0
          1 0 0 0 1 0
          0 0 1 0 0 0
          1 0 0 0 1 0
          0 0 1 0 0 0
          1 0 0 0 1 0
          0 0 1 0 0 0
          1 0 0 0 1 0
          0 0 1 0 0 0
          1 0 0 0 1 0
          0 0 1 0 0 0
          1 0 0 0 1 0
          0 0 1 0 0 0
          1 0 0 0 1 0
          0 0 1 0 0 0
          1 0 0 0 1 0
          0 0 1 0 0 0
          1 0 0 0 1 0
          0 0 1 0 0 0
          1 0 0 0 1 0
          0 0 1 0 0 0
          1 0 0 0 1 0
          0 0 1 0 0 0
          1 0 0 0 1 0
          0 0 1 0 0 0
          1 0 0 0 1 0
          0 0 1 0 0 0
          1 0 0 0 1 0
          0 0 1 0 0 0
          1 0 0 0 1 0
          0 0 1 0 0 0
          1 0
        </DataArray>
      </PointData>
      <CellData>
        <DataArray type="Int32" Name="SegmentationId" format="ascii" RangeMin="0" RangeMax="97">
          0 1 2 3 4 5
          6 7 8 9 10 11
          12 13 14 15 16 17
          18 19 20 21 22 23
          24 25 26 27 28 29
          30 31 32 33 34 35
          36 37 38 39 40 41
          42 43 44 45 46 47
          48 49 50 51 52 53
          54 55 56 57 58 59
          60 61 62 63 64 65
          66 67 68 69 70 71
          72 73 74 75 76 77
          78 79 80 81 82 83
          84 85 86 87 88 89
          90 91 92 93 94 95
          96 97
        </DataArray>
        <DataArray type="Int32" Name="Type" format="ascii" RangeMin="-1" RangeMax="-1">
          -1 -1 -1 -1 -1 -1
          -1 -1 -1 -1 -1 -1
          -1 -1 -1 -1 -1 -1
          -1 -1 -1 -1 -1 -1
          -1 -1 -1 -1 -1 -1
          -1 -1 -1 -1 -1 -1
          -1 -1 -1 -1 -1 -1
          -1 -1 -1 -1 -1 -1
          -1 -1 -1 -1 -1 -1
          -1 -1 -1 -1 -1 -1
          -1 -1 -1 -1 -1 -1
          -1 -1 -1 -1 -1 -1
          -1 -1 -1 -1 -1 -1
          -1 -1 -1 -1 -1 -1
          -1 -1 -1 -1 -1 -1
          -1 -1 -1 -1 -1 -1
          -1 -1
        </DataArray>
        <DataArray type="Int32" Name="RegionSize" format="ascii" RangeMin="0" RangeMax="459380">
          9 1 0 1 0 1
          0 8 3 0 0 2
          0 0 28 2 0 2
          0 0 2 0 0 12
          5 4 3 2 8 3
          8 1 0 21 1 0
          0 3 3 4 3 14
          3 2 4914 2089 633 351
          206 2336 427 2023 3 22
          13 0 5 23 31 20
          4 16 27 1094 71 3484
          49 54 52 2612 2834 42
          4647 6169 14996 4236 170 89
          186 3664 69 27082 68 18316
          112 2346 1514 96738 2687 6079
          12077 19163 69610 809 150873 60903
          459380 44625
        </DataArray>
        <DataArray type="Float64" Name="RegionSpan" format="ascii" RangeMin="1" RangeMax="128.37445229">
          1.4142135624 1.4142135624 1 1.4142135624 1.4142135624 1.4142135624
          1 2 1.4142135624 1 1.4142135624 1.4142135624
          1 1.4142135624 1.4142135624 1.4142135624 1 1.4142135624
          1 1 1.4142135624 1.4142135624 1 1.4142135624
          1.4142135624 1 1.4142135624 1.4142135624 1.4142135624 1.4142135624
          2.2360679775 1.4142135624 1 1.4142135624 1.4142135624 1
          1 1.4142135624 1.4142135624 1 1.4142135624 1.4142135624
          1.4142135624 1.4142135624 65 43 42 35
          28 36 27 47 1.4142135624 1.4142135624
          2.2360679775 1 1.4142135624 1.4142135624 1.4142135624 2.2360679775
          1.4142135624 1.7320508076 1.4142135624 87.114866699 3 9.2195444573
          1.7320508076 2.4494897428 2.4494897428 12.449899598 11.66190379 2.4494897428
          15.684387141 16.522711642 81.320354156 17.117242769 2.4494897428 1.4142135624
          2.2360679775 16.733200531 1.4142135624 83.862983491 13.928388277 19.723082923
          1 16.031219542 5.1961524227 128.37445229 26.172504657 32.771939216
          16.30950643 24.919871589 121.75795662 28.930952283 113.74532957 31.921779399
          48.672374095 53.833075335
        </DataArray>
      </CellData>
      <Points>
        <DataArray type="Float32" Name="Points" NumberOfComponents="3" format="ascii" RangeMin="26.305892876" RangeMax="86.602540378">
          6 42 33 5 42 34
          5 43 33 4 44 33
          5 43 33 6 43 33
          5 44 31 4 45 31
          -11 23 25 -12 23 26
          2 -26 26 1 -25 26
          2 -26 26 3 -26 26
          -11 23 25 -11 25 25
          3 -25 25 2 -24 25
          3 -25 25 4 -25 25
          -11 25 24 -12 26 24
          3 -24 24 2 -23 24
          3 -24 24 4 -24 24
          2 -23 22 1 -22 22
          -40 -2 20 -41 -2 21
          -41 -1 20 -42 0 20
          -41 -1 20 -40 -1 20
          -41 0 19 -42 1 19
          -41 0 19 -40 0 19
          -41 1 18 -40 1 18
          -41 1 17 -42 2 17
          -32 43 10 -33 44 10
          -32 43 10 -31 43 10
          25 28 9 24 28 10
          -32 44 9 -31 45 9
          25 28 9 25 29 9
          -30 45 8 -31 46 8
          25 29 8 24 30 8
          8 42 6 7 42 7
          -30 46 6 -31 47 6
          8 42 6 7 44 6
          8 44 5 7 45 5
          8 44 5 9 44 5
          -43 30 -1 -44 30 0
          -44 31 -1 -45 32 -1
          -44 31 -1 -43 31 -1
          -44 32 -2 -43 32 -2
          -43 32 -3 -44 33 -3
          20 -23 -6 19 -23 -5
          20 -23 -6 20 -22 -6
          21 -22 -7 20 -21 -7
          -17 23 -31 -18 23 -30
          -17 23 -31 -18 24 -31
          -17 24 -32 -18 25 -32
          50 -50 -50 50 15 -50
          50 -50 50 50 -50 7
          -50 -50 -50 -8 -50 -50
          50 50 -50 50 15 -50
          50 50 50 50 22 50
          -50 -50 50 -50 -50 14
          -50 50 -50 -23 50 -50
          -50 50 50 -50 3 50
          6 42 33 5 43 33
          2 -25 25 2 -26 26
          -11 25 24 -11 23 25
          2 -25 25 3 -25 25
          -40 -2 20 -41 -1 20
          -32 44 9 -32 43 10
          25 29 8 25 28 9
          8 44 5 8 42 6
          -43 30 -1 -44 31 -1
          21 -22 -7 20 -23 -6
          -17 24 -32 -17 23 -31
          50 15 -50 -8 -50 -50
          5 44 31 6 42 33
          -5 32 24 -11 25 24
          3 -24 24 2 -25 25
          -41 0 19 -40 -2 20
          -30 45 8 -32 44 9
          14 34 5 25 29 8
          14 34 5 8 44 5
          -44 32 -2 -43 30 -1
          10 -24 4 21 -22 -7
          -27 26 -19 -17 24 -32
          -8 -50 -50 50 -50 7
          -5 32 24 5 44 31
          2 -23 22 3 -24 24
          -41 1 18 -41 0 19
          -30 46 6 -30 45 8
          4 40 17 14 34 5
          -43 32 -3 -44 32 -2
          50 -50 7 50 22 50
          4 40 17 -5 32 24
          10 -24 4 2 -23 22
          -41 1 17 -41 1 18
          -40 35 0 -30 46 6
          -40 35 0 -43 32 -3
          50 22 50 -50 -50 14
          -20 30 14 4 40 17
          -18 -13 17 10 -24 4
          -42 13 6 -41 1 17
          -20 30 14 -40 35 0
          -50 -50 14 -23 50 -50
          -42 13 6 -20 30 14
          -23 50 -50 -50 3 50
          -27 26 -19 -42 13 6
          -50 3 50 -18 -13 17
          -18 -13 17 -27 26 -19
        </DataArray>
      </Points>
      <Verts>
        <DataArray type="Int64" Name="connectivity" format="ascii" RangeMin="1e+299" RangeMax="-1e+299">
        </DataArray>
        <DataArray type="Int64" Name="offsets" format="ascii" RangeMin="1e+299" RangeMax="-1e+299">
        </DataArray>
      </Verts>
      <Lines>
        <DataArray type="Int64" Name="connectivity" format="ascii" RangeMin="0" RangeMax="195">
          0 1 2 3 4 5
          6 7 8 9 10 11
          12 13 14 15 16 17
          18 19 20 21 22 23
          24 25 26 27 28 29
          30 31 32 33 34 35
          36 37 38 39 40 41
          42 43 44 45 46 47
          48 49 50 51 52 53
          54 55 56 57 58 59
          60 61 62 63 64 65
          66 67 68 69 70 71
          72 73 74 75 76 77
          78 79 80 81 82 83
          84 85 86 87 88 89
          90 91 92 93 94 95
          96 97 98 99 100 101
          102 103 104 105 106 107
          108 109 110 111 112 113
          114 115 116 117 118 119
          120 121 122 123 124 125
          126 127 128 129 130 131
          132 133 134 135 136 137
          138 139 140 141 142 143
          144 145 146 147 148 149
          150 151 152 153 154 155
          156 157 158 159 160 161
          162 163 164 165 166 167
          168 169 170 171 172 173
          174 175 176 177 178 179
          180 181 182 183 184 185
          186 187 188 189 190 191
          192 193 194 195
        </DataArray>
        <DataArray type="Int64" Name="offsets" format="ascii" RangeMin="2" RangeMax="196">
          2 4 6 8 10 12
          14 16 18 20 22 24
          26 28 30 32 34 36
          38 40 42 44 46 48
          50 52 54 56 58 60
          62 64 66 68 70 72
          74 76 78 80 82 84
          86 88 90 92 94 96
          98 100 102 104 106 108
          110 112 114 116 118 120
          122 124 126 128 130 132
          134 136 138 140 142 144
          146 148 150 152 154 156
          158 160 162 164 166 168
          170 172 174 176 178 180
          182 184 186 188 190 192
          194 196
        </DataArray>
      </Lines>
      <Strips>
        <DataArray type="Int64" Name="connectivity" format="ascii" RangeMin="0" RangeMax="195">
        </DataArray>
        <DataArray type="Int64" Name="offsets" format="ascii" RangeMin="2" RangeMax="196">
        </DataArray>
      </Strips>
      <Polys>
        <DataArray type="Int64" Name="connectivity" format="ascii" RangeMin="0" RangeMax="195">
        </DataArray>
        <DataArray type="Int64" Name="offsets" format="ascii" RangeMin="2" RangeMax="196">
        </DataArray>
      </Polys>
    </Piece>
  </PolyData>
</VTKFile>
