<VTKFile type="PolyData" version="1.0" byte_order="LittleEndian" header_type="UInt64">
  <PolyData>
    <Piece NumberOfPoints="168" NumberOfVerts="0" NumberOfLines="84" NumberOfStrips="0" NumberOfPolys="0">
      <PointData TCoords="Texture Coordinates">
        <DataArray type="Float64" Name="scalars" format="ascii" RangeMin="0.022432399914" RangeMax="1">
          1 1 1 1 1 1
          1 1 1 1 1 1
          1 1 1 1 1 1
          1 1 1 1 1 1
          1 1 1 1 1 1
          1 1 1 1 1 1
          1 1 1 1 1 1
          1 1 1 1 1 1
          1 1 1 1 1 1
          1 1 1 1 1 1
          1 1 1 1 1 1
          1 1 1 1 1 1
          0.022432399914 0.022432399914 0.024082450196 0.024082450196 0.024585249834 0.024585249834
          0.027481500059 0.027481500059 0.032968400978 0.032968400978 0.037911649793 0.037911649793
          0.039201000705 0.039201000705 0.054168397561 0.054168397561 1 1
          1 1 1 1 1 1
          1 1 1 1 1 1
          1 1 1 1 1 1
          0.026225199923 0.026225199923 0.63201600313 0.63201600313 0.63201600313 0.63201600313
          1 1 1 1 1 1
          0.66101950407 0.66101950407 0.66101950407 0.66101950407 0.58616950363 0.58616950363
          0.57421799749 0.57421799749 0.028858700767 0.028858700767 0.2638130039 0.2638130039
          1 1 1 1 0.61867599934 0.61867599934
          0.29281650484 0.29281650484 0.033182701096 0.033182701096 1 1
          1 1 0.25047300011 0.25047300011 0.039076751098 0.039076751098
          0.58616950363 0.58616950363 0.59280399978 0.59280399978 0.21147999913 0.21147999913
          0.043527100235 0.043527100235 0.1641080007 0.1641080007 0.17074249685 0.17074249685
          0.053870948032 0.053870948032 0.15215649456 0.15215649456 0.10616534576 0.10616534576
        </DataArray>
        <DataArray type="Float32" Name="Texture Coordinates" NumberOfComponents="2" format="ascii" RangeMin="0" RangeMax="1">
          0 0 1 0 0 0
          1 0 0 0 1 0
          0 0 1 0 0 0
          1 0 0 0 1 0
          0 0 1 0 0 0
          1 0 0 0 1 0
          0 0 1 0 0 0
          1 0 0 0 1 0
          0 0 1 0 0 0
          1 0 0 0 1 0
          0 0 1 0 0 0
          1 0 0 0 1 0
          0 0 1 0 0 0
          1 0 0 0 1 0
          0 0 1 0 0 0
          1 0 0 0 1 0
          0 0 1 0 0 0
          1 0 0 0 1 0
          0 0 1 0 0 0
          1 0 0 0 1 0
          0 0 1 0 0 0
          1 0 0 0 1 0
          0 0 1 0 0 0
          1 0 0 0 1 0
          0 0 1 0 0 0
          1 0 0 0 1 0
          0 0 1 0 0 0
          1 0 0 0 1 0
          0 0 1 0 0 0
          1 0 0 0 1 0
          0 0 1 0 0 0
          1 0 0 0 1 0
          0 0 1 0 0 0
          1 0 0 0 1 0
          0 0 1 0 0 0
          1 0 0 0 1 0
          0 0 1 0 0 0
          1 0 0 0 1 0
          0 0 1 0 0 0
          1 0 0 0 1 0
          0 0 1 0 0 0
          1 0 0 0 1 0
          0 0 1 0 0 0
          1 0 0 0 1 0
          0 0 1 0 0 0
          1 0 0 0 1 0
          0 0 1 0 0 0
          1 0 0 0 1 0
          0 0 1 0 0 0
          1 0 0 0 1 0
          0 0 1 0 0 0
          1 0 0 0 1 0
          0 0 1 0 0 0
          1 0 0 0 1 0
          0 0 1 0 0 0
          1 0 0 0 1 0
        </DataArray>
      </PointData>
      <CellData>
        <DataArray type="Int32" Name="SegmentationId" format="ascii" RangeMin="0" RangeMax="83">
          0 1 2 3 4 5
          6 7 8 9 10 11
          12 13 14 15 16 17
          18 19 20 21 22 23
          24 25 26 27 28 29
          30 31 32 33 34 35
          36 37 38 39 40 41
          42 43 44 45 46 47
          48 49 50 51 52 53
          54 55 56 57 58 59
          60 61 62 63 64 65
          66 67 68 69 70 71
          72 73 74 75 76 77
          78 79 80 81 82 83
        </DataArray>
        <DataArray type="Int32" Name="Type" format="ascii" RangeMin="-1" RangeMax="-1">
          -1 -1 -1 -1 -1 -1
          -1 -1 -1 -1 -1 -1
          -1 -1 -1 -1 -1 -1
          -1 -1 -1 -1 -1 -1
          -1 -1 -1 -1 -1 -1
          -1 -1 -1 -1 -1 -1
          -1 -1 -1 -1 -1 -1
          -1 -1 -1 -1 -1 -1
          -1 -1 -1 -1 -1 -1
          -1 -1 -1 -1 -1 -1
          -1 -1 -1 -1 -1 -1
          -1 -1 -1 -1 -1 -1
          -1 -1 -1 -1 -1 -1
          -1 -1 -1 -1 -1 -1
        </DataArray>
        <DataArray type="Int32" Name="RegionSize" format="ascii" RangeMin="0" RangeMax="476398">
          15 3 1 6 0 0
          3 2 0 2 0 0
          0 25 0 0 1 4
          2 17 11 9 4 3
          3 5 3 4 3 15
          4 2 3 6 1 0
          4267 1159 388 2193 203 2052
          556 2725 33 25 17 0
          4 40 26 24 26 16
          280 4496 3358 54 53 173
          2740 2878 4840 9354 22926 37
          0 88 12485 3906 26275 74
          228 6630 78686 19144 20870 33698
          6652 7423 42925 210811 18823 476398
        </DataArray>
        <DataArray type="Float64" Name="RegionSpan" format="ascii" RangeMin="1" RangeMax="141.42135624">
          1.4142135624 1.4142135624 1.4142135624 1.4142135624 1.4142135624 1
          1 1.4142135624 1 1.4142135624 1.4142135624 1
          1 1.4142135624 1.4142135624 1 2 1.4142135624
          1.4142135624 1.4142135624 1.4142135624 2.2360679775 1 1.4142135624
          1.4142135624 1.4142135624 1.4142135624 1 1.4142135624 1.4142135624
          1 1.4142135624 1.4142135624 2.2360679775 1.4142135624 1
          64 47 36 44 28 35
          28 50 1.7320508076 1.4142135624 1.7320508076 1
          1.4142135624 2.2360679775 1.7320508076 1.7320508076 1.4142135624 2.2360679775
          83.096329642 17.117242769 8.6602540378 1.7320508076 2.4494897428 2.2360679775
          13.341664064 11.180339887 15.905973721 17.23368794 77.103826105 14.456832295
          1 2.2360679775 19.723082923 16.733200531 84.380092439 1.4142135624
          2.4494897428 25.806975801 141.42135624 21.118712082 19.646882704 17.804493815
          97 33.316662498 36.193922142 61.032778079 54.433445601 76.609398901
        </DataArray>
      </CellData>
      <Points>
        <DataArray type="Float32" Name="Points" NumberOfComponents="3" format="ascii" RangeMin="27.604347484" RangeMax="86.602540378">
          6 43 33 5 43 34
          6 43 33 5 44 33
          5 44 32 4 45 32
          -11 24 25 -12 24 26
          2 -26 26 1 -25 26
          2 -26 26 3 -26 26
          -11 24 25 -11 25 25
          3 -25 25 2 -24 25
          3 -25 25 4 -25 25
          -10 25 24 -11 26 24
          2 -24 24 1 -23 24
          3 -24 24 4 -24 24
          2 -23 23 3 -23 23
          -41 -2 20 -42 -2 21
          -42 -1 20 -43 0 20
          -42 -1 20 -41 -1 20
          -42 0 19 -40 0 19
          -40 0 18 -41 1 18
          -41 1 16 -42 2 16
          -30 43 9 -31 43 10
          25 28 9 24 28 10
          -30 43 9 -31 45 9
          25 28 9 25 29 9
          -30 45 8 -31 46 8
          26 29 8 25 30 8
          8 43 6 7 43 7
          -30 46 6 -31 47 6
          8 43 6 8 44 6
          9 44 5 8 45 5
          21 -23 -7 20 -23 -6
          21 -23 -7 21 -22 -7
          21 -22 -8 20 -21 -8
          -18 22 -31 -19 22 -30
          -18 22 -31 -19 24 -31
          -18 24 -32 -19 25 -32
          -18 24 -32 -17 24 -32
          50 -50 -50 50 14 -50
          -50 -50 -50 -3 -50 -50
          50 50 -50 50 14 -50
          50 -50 50 50 -50 6
          50 50 50 50 22 50
          -50 -50 50 -50 -50 15
          -50 50 -50 -50 22 -50
          -50 50 50 -50 0 50
          5 44 32 6 43 33
          2 -25 25 2 -26 26
          -10 25 24 -11 24 25
          2 -25 25 3 -25 25
          -41 -2 20 -42 -1 20
          -30 45 8 -30 43 9
          26 29 8 25 28 9
          9 44 5 8 43 6
          21 -22 -8 21 -23 -7
          -18 24 -32 -18 22 -31
          50 14 -50 -3 -50 -50
          -5 32 25 5 44 32
          -5 32 25 -10 25 24
          3 -24 24 2 -25 25
          -42 0 19 -41 -2 20
          -30 46 6 -30 45 8
          14 34 5 26 29 8
          14 34 5 9 44 5
          11 -25 4 21 -22 -8
          -23 28 -16 -18 24 -32
          -3 -50 -50 50 -50 6
          4 40 17 -5 32 25
          2 -24 24 3 -24 24
          -40 0 18 -42 0 19
          -20 31 14 -30 46 6
          4 40 17 14 34 5
          50 -50 6 50 22 50
          2 -23 23 2 -24 24
          -41 1 16 -40 0 18
          -20 31 14 4 40 17
          50 22 50 -50 22 -50
          11 -25 4 2 -23 23
          -32 18 12 -41 1 16
          -32 18 12 -20 31 14
          -50 22 -50 -50 -50 15
          -18 -15 17 11 -25 4
          -18 -15 17 -32 18 12
          -50 -50 15 -50 0 50
          -23 28 -16 -18 -15 17
          -50 0 50 -23 28 -16
        </DataArray>
      </Points>
      <Verts>
        <DataArray type="Int64" Name="connectivity" format="ascii" RangeMin="1e+299" RangeMax="-1e+299">
        </DataArray>
        <DataArray type="Int64" Name="offsets" format="ascii" RangeMin="1e+299" RangeMax="-1e+299">
        </DataArray>
      </Verts>
      <Lines>
        <DataArray type="Int64" Name="connectivity" format="ascii" RangeMin="0" RangeMax="167">
          0 1 2 3 4 5
          6 7 8 9 10 11
          12 13 14 15 16 17
          18 19 20 21 22 23
          24 25 26 27 28 29
          30 31 32 33 34 35
          36 37 38 39 40 41
          42 43 44 45 46 47
          48 49 50 51 52 53
          54 55 56 57 58 59
          60 61 62 63 64 65
          66 67 68 69 70 71
          72 73 74 75 76 77
          78 79 80 81 82 83
          84 85 86 87 88 89
          90 91 92 93 94 95
          96 97 98 99 100 101
          102 103 104 105 106 107
          108 109 110 111 112 113
          114 115 116 117 118 119
          120 121 122 123 124 125
          126 127 128 129 130 131
          132 133 134 135 136 137
          138 139 140 141 142 143
          144 145 146 147 148 149
          150 151 152 153 154 155
          156 157 158 159 160 161
          162 163 164 165 166 167
        </DataArray>
        <DataArray type="Int64" Name="offsets" format="ascii" RangeMin="2" RangeMax="168">
          2 4 6 8 10 12
          14 16 18 20 22 24
          26 28 30 32 34 36
          38 40 42 44 46 48
          50 52 54 56 58 60
          62 64 66 68 70 72
          74 76 78 80 82 84
          86 88 90 92 94 96
          98 100 102 104 106 108
          110 112 114 116 118 120
          122 124 126 128 130 132
          134 136 138 140 142 144
          146 148 150 152 154 156
          158 160 162 164 166 168
        </DataArray>
      </Lines>
      <Strips>
        <DataArray type="Int64" Name="connectivity" format="ascii" RangeMin="0" RangeMax="167">
        </DataArray>
        <DataArray type="Int64" Name="offsets" format="ascii" RangeMin="2" RangeMax="168">
        </DataArray>
      </Strips>
      <Polys>
        <DataArray type="Int64" Name="connectivity" format="ascii" RangeMin="0" RangeMax="167">
        </DataArray>
        <DataArray type="Int64" Name="offsets" format="ascii" RangeMin="2" RangeMax="168">
        </DataArray>
      </Polys>
    </Piece>
  </PolyData>
</VTKFile>
