<VTKFile type="PolyData" version="1.0" byte_order="LittleEndian" header_type="UInt64">
  <PolyData>
    <Piece NumberOfPoints="198" NumberOfVerts="0" NumberOfLines="99" NumberOfStrips="0" NumberOfPolys="0">
      <PointData TCoords="Texture Coordinates">
        <DataArray type="Float64" Name="scalars" format="ascii" RangeMin="0.026392550208" RangeMax="1">
          1 1 1 1 1 1
          1 1 1 1 1 1
          1 1 1 1 1 1
          1 1 1 1 1 1
          1 1 1 1 1 1
          1 1 1 1 1 1
          1 1 1 1 1 1
          1 1 1 1 1 1
          1 1 1 1 1 1
          1 1 1 1 1 1
          1 1 1 1 1 1
          1 1 1 1 1 1
          1 1 1 1 1 1
          1 1 1 1 1 1
          1 1 1 1 0.026392550208 0.026392550208
          0.028559350409 0.028559350409 0.029533099383 0.029533099383 0.032924550585 0.032924550585
          0.039171699435 0.039171699435 0.042626099661 0.042626099661 0.050102351233 0.050102351233
          0.063497500494 0.063497500494 1 1 1 1
          1 1 1 1 1 1
          1 1 1 1 1 1
          1 1 1 1 1 1
          0.031339749694 0.031339749694 0.67011100054 0.67011100054 1 1
          0.66542349756 0.66542349756 1 1 0.57139500231 0.57139500231
          1 1 0.70650799572 0.70650799572 1 1
          1 1 0.61632800102 0.61632800102 0.61865849793 0.61865849793
          0.034866699949 0.034866699949 1 1 1 1
          1 1 0.70650799572 0.70650799572 1 1
          0.040631050244 0.040631050244 0.61632800102 0.61632800102 0.6483104974 0.6483104974
          0.85663250089 0.85663250089 0.37661899626 0.37661899626 0.85663250089 0.85663250089
          0.04636419937 0.04636419937 0.21142400056 0.21142400056 0.3355344981 0.3355344981
          0.51142549515 0.51142549515 0.051842600107 0.051842600107 0.32021649182 0.32021649182
          0.06392705068 0.06392705068 0.30310349166 0.30310349166 0.10810350254 0.10810350254
          0.26696899533 0.26696899533 0.16649100184 0.16649100184 0.21375449747 0.21375449747
        </DataArray>
        <DataArray type="Float32" Name="Texture Coordinates" NumberOfComponents="2" format="ascii" RangeMin="0" RangeMax="1">
          0 0 1 0 0 0
          1 0 0 0 1 0
          0 0 1 0 0 0
          1 0 0 0 1 0
          0 0 1 0 0 0
          1 0 0 0 1 0
          0 0 1 0 0 0
          1 0 0 0 1 0
          0 0 1 0 0 0
          1 0 0 0 1 0
          0 0 1 0 0 0
          1 0 0 0 1 0
          0 0 1 0 0 0
          1 0 0 0 1 0
          0 0 1 0 0 0
          1 0 0 0 1 0
          0 0 1 0 0 0
          1 0 0 0 1 0
          0 0 1 0 0 0
          1 0 0 0 1 0
          0 0 1 0 0 0
          1 0 0 0 1 0
          0 0 1 0 0 0
          1 0 0 0 1 0
          0 0 1 0 0 0
          1 0 0 0 1 0
          0 0 1 0 0 0
          1 0 0 0 1 0
          0 0 1 0 0 0
          1 0 0 0 1 0
          0 0 1 0 0 0
          1 0 0 0 1 0
          0 0 1 0 0 0
          1 0 0 0 1 0
          0 0 1 0 0 0
          1 0 0 0 1 0
          0 0 1 0 0 0
          1 0 0 0 1 0
          0 0 1 0 0 0
          1 0 0 0 1 0
          0 0 1 0 0 0
          1 0 0 0 1 0
          0 0 1 0 0 0
          1 0 0 0 1 0
          0 0 1 0 0 0
          1 0 0 0 1 0
          0 0 1 0 0 0
          1 0 0 0 1 0
          0 0 1 0 0 0
          1 0 0 0 1 0
          0 0 1 0 0 0
          1 0 0 0 1 0
          0 0 1 0 0 0
          1 0 0 0 1 0
          0 0 1 0 0 0
          1 0 0 0 1 0
          0 0 1 0 0 0
          1 0 0 0 1 0
          0 0 1 0 0 0
          1 0 0 0 1 0
          0 0 1 0 0 0
          1 0 0 0 1 0
          0 0 1 0 0 0
          1 0 0 0 1 0
          0 0 1 0 0 0
          1 0 0 0 1 0
        </DataArray>
      </PointData>
      <CellData>
        <DataArray type="Int32" Name="SegmentationId" format="ascii" RangeMin="0" RangeMax="98">
          0 1 2 3 4 5
          6 7 8 9 10 11
          12 13 14 15 16 17
          18 19 20 21 22 23
          24 25 26 27 28 29
          30 31 32 33 34 35
          36 37 38 39 40 41
          42 43 44 45 46 47
          48 49 50 51 52 53
          54 55 56 57 58 59
          60 61 62 63 64 65
          66 67 68 69 70 71
          72 73 74 75 76 77
          78 79 80 81 82 83
          84 85 86 87 88 89
          90 91 92 93 94 95
          96 97 98
        </DataArray>
        <DataArray type="Int32" Name="Type" format="ascii" RangeMin="-1" RangeMax="-1">
          -1 -1 -1 -1 -1 -1
          -1 -1 -1 -1 -1 -1
          -1 -1 -1 -1 -1 -1
          -1 -1 -1 -1 -1 -1
          -1 -1 -1 -1 -1 -1
          -1 -1 -1 -1 -1 -1
          -1 -1 -1 -1 -1 -1
          -1 -1 -1 -1 -1 -1
          -1 -1 -1 -1 -1 -1
          -1 -1 -1 -1 -1 -1
          -1 -1 -1 -1 -1 -1
          -1 -1 -1 -1 -1 -1
          -1 -1 -1 -1 -1 -1
          -1 -1 -1 -1 -1 -1
          -1 -1 -1 -1 -1 -1
          -1 -1 -1 -1 -1 -1
          -1 -1 -1
        </DataArray>
        <DataArray type="Int32" Name="RegionSize" format="ascii" RangeMin="0" RangeMax="380300">
          7 7 1 5 12 0
          4 6 4 0 1 18
          12 4 0 3 1 13
          4 36 17 1 5 3
          2 1 0 0 0 2
          0 0 0 17 8 0
          0 0 6 4 2 1
          8 2 4690 716 733 2170
          1001 2298 420 1954 22 25
          45 42 26 63 34 19
          38 17 14 2609 3128 59
          2669 78 7500 89 1939 37
          0 3451 4725 24311 80 233
          109 2030 67 37464 12109 10732
          1884 2875 1369 46038 11491 906
          16323 46978 3372 168805 4831 380300
          39732 122665 54669
        </DataArray>
        <DataArray type="Float64" Name="RegionSpan" format="ascii" RangeMin="1" RangeMax="121.46192819">
          1.4142135624 2.2360679775 1.4142135624 1.4142135624 2 1.4142135624
          1.4142135624 2 1.4142135624 1.4142135624 1.4142135624 1.4142135624
          2.2360679775 1.4142135624 1 1.4142135624 1.4142135624 1.4142135624
          1 1.4142135624 1.4142135624 1.4142135624 1 1.4142135624
          1.4142135624 1.4142135624 1 1.4142135624 1 1.4142135624
          1.4142135624 1 1 1.4142135624 2.2360679775 1.4142135624
          1 1 1.4142135624 1 1.4142135624 1.4142135624
          2 1.4142135624 58 42 40 41
          44 37 28 46 2.4494897428 2.4494897428
          3 2.2360679775 1.4142135624 1.4142135624 1.7320508076 1.4142135624
          2.2360679775 1.4142135624 2.4494897428 83.45058418 14.594519519 1.4142135624
          7.874007874 1.4142135624 18.493242009 1.4142135624 11.180339887 1.4142135624
          1 14.035668848 13.490737563 84.148677946 2.4494897428 2.4494897428
          1 11.66190379 1.4142135624 69.404610798 18.027756377 14.899664426
          15.620499352 15.066519173 5.4772255751 120.43670537 27.892651362 12.206555616
          22.759613353 121.46192819 16.763054614 113.57816692 26.739483914 91.246917756
          29.580398915 51.546095875 49.658836072
        </DataArray>
      </CellData>
      <Points>
        <DataArray type="Float32" Name="Points" NumberOfComponents="3" format="ascii" RangeMin="22.494443758" RangeMax="86.602540378">
          4 39 31 3 39 32
          4 39 31 3 41 31
          3 41 30 2 42 30
          2 -25 25 1 -25 26
          2 -25 25 2 -23 25
          -12 22 23 -13 22 24
          3 -23 24 2 -22 24
          -12 22 23 -12 24 23
          3 -22 23 2 -21 23
          1 -21 22 0 -20 22
          -11 24 21 -12 25 21
          -39 -2 20 -40 -2 21
          -39 -2 20 -40 0 20
          -39 0 19 -40 1 19
          -39 0 19 -38 0 19
          -39 1 18 -40 2 18
          -40 2 16 -41 3 16
          48 -3 11 47 -3 12
          48 -3 11 48 -2 11
          -30 43 9 -31 43 10
          22 27 9 21 27 10
          48 -2 10 47 -1 10
          -30 43 9 -30 44 9
          22 27 9 21 28 9
          -30 44 8 -31 45 8
          21 28 8 20 29 8
          -30 45 7 -29 45 7
          5 40 7 4 41 7
          5 40 7 6 40 7
          -30 45 6 -31 46 6
          5 41 6 4 42 6
          5 41 6 6 41 6
          5 42 5 6 42 5
          -42 29 0 -43 29 1
          -42 29 0 -43 31 0
          -43 31 -1 -44 32 -1
          -42 31 -1 -41 31 -1
          -43 32 -2 -42 32 -2
          16 -18 -4 15 -18 -3
          16 -18 -4 16 -17 -4
          16 -17 -5 15 -16 -5
          -18 21 -26 -19 21 -25
          -18 21 -26 -18 23 -26
          -17 23 -27 -18 24 -27
          50 -50 -50 -8 -50 -50
          -50 -50 -50 -8 -50 -50
          50 50 -50 50 10 -50
          50 -50 50 50 -50 9
          50 50 50 50 6 50
          -50 -50 50 -50 -50 13
          -50 50 -50 -22 50 -50
          -50 50 50 -50 4 50
          3 41 30 4 39 31
          3 -23 24 2 -25 25
          -11 24 21 -12 22 23
          -39 0 19 -39 -2 20
          48 -2 10 48 -3 11
          -30 44 8 -30 43 9
          21 28 8 22 27 9
          5 41 6 5 40 7
          -42 31 -1 -42 29 0
          16 -17 -5 16 -18 -4
          -17 23 -27 -18 21 -26
          -8 -50 -50 50 10 -50
          2 37 16 3 41 30
          3 -22 23 3 -23 24
          -6 30 22 -11 24 21
          -39 1 18 -39 0 19
          31 5 8 48 -2 10
          -30 45 7 -30 44 8
          11 32 5 21 28 8
          5 42 5 5 41 6
          -43 31 -1 -42 31 -1
          7 -21 5 16 -17 -5
          -26 24 -17 -17 23 -27
          50 10 -50 50 -50 9
          1 -21 22 3 -22 23
          -40 2 16 -39 1 18
          -30 45 6 -30 45 7
          11 32 5 5 42 5
          -43 32 -2 -43 31 -1
          50 -50 9 50 6 50
          7 -21 5 1 -21 22
          -41 13 6 -40 2 16
          -38 33 0 -30 45 6
          2 37 16 11 32 5
          -38 33 0 -43 32 -2
          50 6 50 -50 -50 13
          -17 -12 16 7 -21 5
          -6 30 22 2 37 16
          -20 28 13 -38 33 0
          -50 -50 13 -22 50 -50
          -20 28 13 -6 30 22
          -22 50 -50 -50 4 50
          -41 13 6 -20 28 13
          -50 4 50 31 5 8
          -26 24 -17 -41 13 6
          31 5 8 -17 -12 16
          -17 -12 16 -26 24 -17
        </DataArray>
      </Points>
      <Verts>
        <DataArray type="Int64" Name="connectivity" format="ascii" RangeMin="1e+299" RangeMax="-1e+299">
        </DataArray>
        <DataArray type="Int64" Name="offsets" format="ascii" RangeMin="1e+299" RangeMax="-1e+299">
        </DataArray>
      </Verts>
      <Lines>
        <DataArray type="Int64" Name="connectivity" format="ascii" RangeMin="0" RangeMax="197">
          0 1 2 3 4 5
          6 7 8 9 10 11
          12 13 14 15 16 17
          18 19 20 21 22 23
          24 25 26 27 28 29
          30 31 32 33 34 35
          36 37 38 39 40 41
          42 43 44 45 46 47
          48 49 50 51 52 53
          54 55 56 57 58 59
          60 61 62 63 64 65
          66 67 68 69 70 71
          72 73 74 75 76 77
          78 79 80 81 82 83
          84 85 86 87 88 89
          90 91 92 93 94 95
          96 97 98 99 100 101
          102 103 104 105 106 107
          108 109 110 111 112 113
          114 115 116 117 118 119
          120 121 122 123 124 125
          126 127 128 129 130 131
          132 133 134 135 136 137
          138 139 140 141 142 143
          144 145 146 147 148 149
          150 151 152 153 154 155
          156 157 158 159 160 161
          162 163 164 165 166 167
          168 169 170 171 172 173
          174 175 176 177 178 179
          180 181 182 183 184 185
          186 187 188 189 190 191
          192 193 194 195 196 197
        </DataArray>
        <DataArray type="Int64" Name="offsets" format="ascii" RangeMin="2" RangeMax="198">
          2 4 6 8 10 12
          14 16 18 20 22 24
          26 28 30 32 34 36
          38 40 42 44 46 48
          50 52 54 56 58 60
          62 64 66 68 70 72
          74 76 78 80 82 84
          86 88 90 92 94 96
          98 100 102 104 106 108
          110 112 114 116 118 120
          122 124 126 128 130 132
          134 136 138 140 142 144
          146 148 150 152 154 156
          158 160 162 164 166 168
          170 172 174 176 178 180
          182 184 186 188 190 192
          194 196 198
        </DataArray>
      </Lines>
      <Strips>
        <DataArray type="Int64" Name="connectivity" format="ascii" RangeMin="0" RangeMax="197">
        </DataArray>
        <DataArray type="Int64" Name="offsets" format="ascii" RangeMin="2" RangeMax="198">
        </DataArray>
      </Strips>
      <Polys>
        <DataArray type="Int64" Name="connectivity" format="ascii" RangeMin="0" RangeMax="197">
        </DataArray>
        <DataArray type="Int64" Name="offsets" format="ascii" RangeMin="2" RangeMax="198">
        </DataArray>
      </Polys>
    </Piece>
  </PolyData>
</VTKFile>
