<VTKFile type="PolyData" version="1.0" byte_order="LittleEndian" header_type="UInt64">
  <PolyData>
    <Piece NumberOfPoints="220" NumberOfVerts="0" NumberOfLines="110" NumberOfStrips="0" NumberOfPolys="0">
      <PointData TCoords="Texture Coordinates">
        <DataArray type="Float64" Name="scalars" format="ascii" RangeMin="0.035073899664" RangeMax="1">
          1 1 1 1 1 1
          1 1 1 1 1 1
          1 1 1 1 1 1
          1 1 1 1 1 1
          1 1 1 1 1 1
          1 1 1 1 1 1
          1 1 1 1 1 1
          1 1 1 1 1 1
          1 1 1 1 1 1
          1 1 1 1 1 1
          1 1 1 1 1 1
          1 1 1 1 1 1
          1 1 1 1 1 1
          1 1 1 1 1 1
          1 1 1 1 1 1
          1 1 1 1 1 1
          1 1 0.035073899664 0.035073899664 0.035517349839 0.035517349839
          0.036907099187 0.036907099187 0.046274550259 0.046274550259 0.048161949962 0.048161949962
          0.050957599655 0.050957599655 0.052031399682 0.052031399682 0.06881920062 0.06881920062
          1 1 1 1 1 1
          0.7426020056 0.7426020056 1 1 1 1
          1 1 1 1 1 1
          1 1 1 1 1 1
          1 1 0.040622649714 0.040622649714 0.76429748535 0.76429748535
          1 1 1 1 1 1
          0.67382650077 0.67382650077 1 1 1 1
          1 1 1 1 0.7815670073 0.7815670073
          1 1 0.047520549968 0.047520549968 1 1
          1 1 1 1 1 1
          0.82268750668 0.82268750668 0.82268750668 0.82268750668 0.96562999487 0.96562999487
          0.67731299996 0.67731299996 0.0546342507 0.0546342507 0.88822749257 0.88822749257
          0.69384199381 0.69384199381 0.88822749257 0.88822749257 0.96562999487 0.96562999487
          0.58698499203 0.58698499203 0.05610460043 0.05610460043 0.66979449987 0.66979449987
          0.67592749 0.67592749 0.50689949095 0.50689949095 0.057678299025 0.057678299025
          0.45539350808 0.45539350808 0.45289950073 0.45289950073 0.069159200415 0.069159200415
          0.31596949697 0.31596949697 0.40413948894 0.40413948894 0.18191614747 0.18191614747
          0.37115499377 0.37115499377 0.31945599616 0.31945599616
        </DataArray>
        <DataArray type="Float32" Name="Texture Coordinates" NumberOfComponents="2" format="ascii" RangeMin="0" RangeMax="1">
          0 0 1 0 0 0
          1 0 0 0 1 0
          0 0 1 0 0 0
          1 0 0 0 1 0
          0 0 1 0 0 0
          1 0 0 0 1 0
          0 0 1 0 0 0
          1 0 0 0 1 0
          0 0 1 0 0 0
          1 0 0 0 1 0
          0 0 1 0 0 0
          1 0 0 0 1 0
          0 0 1 0 0 0
          1 0 0 0 1 0
          0 0 1 0 0 0
          1 0 0 0 1 0
          0 0 1 0 0 0
          1 0 0 0 1 0
          0 0 1 0 0 0
          1 0 0 0 1 0
          0 0 1 0 0 0
          1 0 0 0 1 0
          0 0 1 0 0 0
          1 0 0 0 1 0
          0 0 1 0 0 0
          1 0 0 0 1 0
          0 0 1 0 0 0
          1 0 0 0 1 0
          0 0 1 0 0 0
          1 0 0 0 1 0
          0 0 1 0 0 0
          1 0 0 0 1 0
          0 0 1 0 0 0
          1 0 0 0 1 0
          0 0 1 0 0 0
          1 0 0 0 1 0
          0 0 1 0 0 0
          1 0 0 0 1 0
          0 0 1 0 0 0
          1 0 0 0 1 0
          0 0 1 0 0 0
          1 0 0 0 1 0
          0 0 1 0 0 0
          1 0 0 0 1 0
          0 0 1 0 0 0
          1 0 0 0 1 0
          0 0 1 0 0 0
          1 0 0 0 1 0
          0 0 1 0 0 0
          1 0 0 0 1 0
          0 0 1 0 0 0
          1 0 0 0 1 0
          0 0 1 0 0 0
          1 0 0 0 1 0
          0 0 1 0 0 0
          1 0 0 0 1 0
          0 0 1 0 0 0
          1 0 0 0 1 0
          0 0 1 0 0 0
          1 0 0 0 1 0
          0 0 1 0 0 0
          1 0 0 0 1 0
          0 0 1 0 0 0
          1 0 0 0 1 0
          0 0 1 0 0 0
          1 0 0 0 1 0
          0 0 1 0 0 0
          1 0 0 0 1 0
          0 0 1 0 0 0
          1 0 0 0 1 0
          0 0 1 0 0 0
          1 0 0 0 1 0
          0 0 1 0 0 0
          1 0
        </DataArray>
      </PointData>
      <CellData>
        <DataArray type="Int32" Name="SegmentationId" format="ascii" RangeMin="0" RangeMax="109">
          0 1 2 3 4 5
          6 7 8 9 10 11
          12 13 14 15 16 17
          18 19 20 21 22 23
          24 25 26 27 28 29
          30 31 32 33 34 35
          36 37 38 39 40 41
          42 43 44 45 46 47
          48 49 50 51 52 53
          54 55 56 57 58 59
          60 61 62 63 64 65
          66 67 68 69 70 71
          72 73 74 75 76 77
          78 79 80 81 82 83
          84 85 86 87 88 89
          90 91 92 93 94 95
          96 97 98 99 100 101
          102 103 104 105 106 107
          108 109
        </DataArray>
        <DataArray type="Int32" Name="Type" format="ascii" RangeMin="-1" RangeMax="-1">
          -1 -1 -1 -1 -1 -1
          -1 -1 -1 -1 -1 -1
          -1 -1 -1 -1 -1 -1
          -1 -1 -1 -1 -1 -1
          -1 -1 -1 -1 -1 -1
          -1 -1 -1 -1 -1 -1
          -1 -1 -1 -1 -1 -1
          -1 -1 -1 -1 -1 -1
          -1 -1 -1 -1 -1 -1
          -1 -1 -1 -1 -1 -1
          -1 -1 -1 -1 -1 -1
          -1 -1 -1 -1 -1 -1
          -1 -1 -1 -1 -1 -1
          -1 -1 -1 -1 -1 -1
          -1 -1 -1 -1 -1 -1
          -1 -1 -1 -1 -1 -1
          -1 -1 -1 -1 -1 -1
          -1 -1 -1 -1 -1 -1
          -1 -1
        </DataArray>
        <DataArray type="Int32" Name="RegionSize" format="ascii" RangeMin="0" RangeMax="628730">
          12 4 2 3 12 1
          0 0 3 14 39 2
          5 3 1 0 15 12
          6 5 13 3 12 5
          3 10 5 2 2 0
          1 4 0 10 2 4
          4 3 11 10 3 8
          7 3 2 8 4 3
          0 2447 1998 2102 2787 1768
          2132 501 1777 30 25 4
          1561 70 45 27 40 24
          14 34 62 23 2305 1578
          62 95 83 2400 76 45
          39 160 930 91 46198 92
          0 114 104 985 1000 813
          2717 10737 1594 8333 2464 1237
          1582 5754 4584 11285 1535 14027
          18054 4914 160651 18404 7134 628730
          11466 40066
        </DataArray>
        <DataArray type="Float64" Name="RegionSpan" format="ascii" RangeMin="1" RangeMax="134.29817571">
          1.4142135624 1 1.4142135624 1.4142135624 2.2360679775 1.4142135624
          1 1 1.4142135624 1.4142135624 1.4142135624 1.4142135624
          1 1.4142135624 1.4142135624 1 1.4142135624 2.2360679775
          1 1.4142135624 1.4142135624 1.4142135624 1.4142135624 1.4142135624
          1.4142135624 2 1.4142135624 1.4142135624 1.4142135624 1
          1.4142135624 1.4142135624 1 2 1.4142135624 1.4142135624
          1.4142135624 1.4142135624 1.4142135624 2 1.4142135624 1.4142135624
          2.2360679775 1.4142135624 1.4142135624 1.4142135624 1 1.4142135624
          1.4142135624 50 50 50 41 44
          38 30 42 1.7320508076 3 2.2360679775
          6.4031242374 1.4142135624 2.2360679775 1.4142135624 2.4494897428 2.4494897428
          2.4494897428 2.4494897428 2.8284271247 1.7320508076 70.710678119 12.806248475
          3 1.4142135624 1.7320508076 15 1.4142135624 1.7320508076
          1.4142135624 2.2360679775 9.4339811321 3 126.41598 1.4142135624
          1 1.7320508076 1.4142135624 9.6953597148 8.602325267 3
          12.206555616 69.404610798 10.392304845 14.212670404 12.529964086 14.866068747
          12.083045974 134.29817571 14.035668848 18.466185313 9.8488578018 121.42487389
          17.291616466 15.297058541 114.92606319 22.113344387 23.958297101 64.699304478
          24.186773245 39.230090492
        </DataArray>
      </CellData>
      <Points>
        <DataArray type="Float32" Name="Points" NumberOfComponents="3" format="ascii" RangeMin="10.488088482" RangeMax="86.602540378">
          0 35 27 -1 35 28
          0 35 27 0 36 27
          1 36 26 0 37 26
          0 -21 24 -1 -21 25
          0 -21 24 1 -19 24
          0 -18 23 -1 -17 23
          0 -18 23 1 -18 23
          0 -17 22 1 -17 22
          1 -17 21 0 -16 21
          -11 21 19 -12 21 20
          -37 1 19 -38 1 20
          -11 21 19 -12 22 19
          -37 1 19 -37 2 19
          -37 2 18 -38 3 18
          -38 3 17 -39 4 17
          -37 3 17 -36 3 17
          19 -25 15 18 -25 16
          19 -25 15 18 -23 15
          19 -23 14 19 -22 14
          20 -22 13 19 -21 13
          34 1 11 33 1 12
          19 -21 12 18 -20 12
          -29 39 10 -30 39 11
          14 24 10 13 24 11
          34 1 11 33 2 11
          -29 39 10 -29 41 10
          14 24 10 15 25 10
          34 2 10 33 3 10
          -28 41 9 -29 42 9
          -28 41 9 -27 41 9
          2 33 8 1 33 9
          16 25 9 15 26 9
          -28 42 8 -27 42 8
          2 33 8 2 35 8
          15 26 8 14 27 8
          -27 42 7 -28 43 7
          3 35 7 2 36 7
          3 36 6 2 37 6
          -38 27 2 -39 27 3
          -38 27 2 -38 29 2
          -37 29 1 -38 30 1
          9 -10 0 8 -10 1
          9 -10 0 8 -8 0
          -37 30 -1 -38 31 -1
          9 -8 -2 8 -7 -2
          -16 20 -18 -17 20 -17
          -16 20 -18 -16 21 -18
          -15 21 -19 -16 22 -19
          -17 22 -21 -18 23 -21
          50 -50 -50 50 0 -50
          50 50 -50 50 0 -50
          -50 -50 -50 0 -50 -50
          50 50 50 50 50 9
          50 -50 50 50 -6 50
          -50 -50 50 -50 -50 12
          -50 50 -50 -20 50 -50
          -50 50 50 -8 50 50
          1 36 26 0 35 27
          2 -19 23 0 -21 24
          2 -19 23 0 -18 23
          -7 26 19 -11 21 19
          -37 2 18 -37 1 19
          19 -23 14 19 -25 15
          34 2 10 34 1 11
          -28 41 9 -29 39 10
          16 25 9 14 24 10
          3 35 7 2 33 8
          -37 29 1 -38 27 2
          9 -8 -2 9 -10 0
          -15 21 -19 -16 20 -18
          50 0 -50 0 -50 -50
          -1 32 14 1 36 26
          0 -17 22 2 -19 23
          -37 3 17 -37 2 18
          20 -22 13 19 -23 14
          24 -9 8 34 2 10
          -28 42 8 -28 41 9
          15 26 8 16 25 9
          3 36 6 3 35 7
          -37 30 -1 -37 29 1
          9 -16 3 9 -8 -2
          -17 22 -21 -15 21 -19
          0 -50 -50 50 50 9
          1 -17 21 0 -17 22
          -38 3 17 -37 3 17
          19 -21 12 20 -22 13
          -27 42 7 -28 42 8
          6 28 5 15 26 8
          6 28 5 3 36 6
          -35 31 1 -37 30 -1
          -24 22 -11 -17 22 -21
          50 50 9 50 -6 50
          7 -23 15 1 -17 21
          -38 12 6 -38 3 17
          7 -23 15 19 -21 12
          -35 31 1 -27 42 7
          -1 32 14 6 28 5
          50 -6 50 -20 50 -50
          9 -16 3 7 -23 15
          -20 27 11 -35 31 1
          -7 26 19 -1 32 14
          -20 50 -50 -50 -50 12
          24 -9 8 9 -16 3
          -20 27 11 -7 26 19
          -50 -50 12 -8 50 50
          7 5 6 24 -9 8
          -38 12 6 -20 27 11
          -8 50 50 7 5 6
          -24 22 -11 -38 12 6
          7 5 6 -24 22 -11
        </DataArray>
      </Points>
      <Verts>
        <DataArray type="Int64" Name="connectivity" format="ascii" RangeMin="1e+299" RangeMax="-1e+299">
        </DataArray>
        <DataArray type="Int64" Name="offsets" format="ascii" RangeMin="1e+299" RangeMax="-1e+299">
        </DataArray>
      </Verts>
      <Lines>
        <DataArray type="Int64" Name="connectivity" format="ascii" RangeMin="0" RangeMax="219">
          0 1 2 3 4 5
          6 7 8 9 10 11
          12 13 14 15 16 17
          18 19 20 21 22 23
          24 25 26 27 28 29
          30 31 32 33 34 35
          36 37 38 39 40 41
          42 43 44 45 46 47
          48 49 50 51 52 53
          54 55 56 57 58 59
          60 61 62 63 64 65
          66 67 68 69 70 71
          72 73 74 75 76 77
          78 79 80 81 82 83
          84 85 86 87 88 89
          90 91 92 93 94 95
          96 97 98 99 100 101
          102 103 104 105 106 107
          108 109 110 111 112 113
          114 115 116 117 118 119
          120 121 122 123 124 125
          126 127 128 129 130 131
          132 133 134 135 136 137
          138 139 140 141 142 143
          144 145 146 147 148 149
          150 151 152 153 154 155
          156 157 158 159 160 161
          162 163 164 165 166 167
          168 169 170 171 172 173
          174 175 176 177 178 179
          180 181 182 183 184 185
          186 187 188 189 190 191
          192 193 194 195 196 197
          198 199 200 201 202 203
          204 205 206 207 208 209
          210 211 212 213 214 215
          216 217 218 219
        </DataArray>
        <DataArray type="Int64" Name="offsets" format="ascii" RangeMin="2" RangeMax="220">
          2 4 6 8 10 12
          14 16 18 20 22 24
          26 28 30 32 34 36
          38 40 42 44 46 48
          50 52 54 56 58 60
          62 64 66 68 70 72
          74 76 78 80 82 84
          86 88 90 92 94 96
          98 100 102 104 106 108
          110 112 114 116 118 120
          122 124 126 128 130 132
          134 136 138 140 142 144
          146 148 150 152 154 156
          158 160 162 164 166 168
          170 172 174 176 178 180
          182 184 186 188 190 192
          194 196 198 200 202 204
          206 208 210 212 214 216
          218 220
        </DataArray>
      </Lines>
      <Strips>
        <DataArray type="Int64" Name="connectivity" format="ascii" RangeMin="0" RangeMax="219">
        </DataArray>
        <DataArray type="Int64" Name="offsets" format="ascii" RangeMin="2" RangeMax="220">
        </DataArray>
      </Strips>
      <Polys>
        <DataArray type="Int64" Name="connectivity" format="ascii" RangeMin="0" RangeMax="219">
        </DataArray>
        <DataArray type="Int64" Name="offsets" format="ascii" RangeMin="2" RangeMax="220">
        </DataArray>
      </Polys>
    </Piece>
  </PolyData>
</VTKFile>
