<VTKFile type="PolyData" version="1.0" byte_order="LittleEndian" header_type="UInt64">
  <PolyData>
    <Piece NumberOfPoints="284" NumberOfVerts="0" NumberOfLines="142" NumberOfStrips="0" NumberOfPolys="0">
      <PointData TCoords="Texture Coordinates">
        <DataArray type="Float64" Name="scalars" format="ascii" RangeMin="0.03792630136" RangeMax="1">
          1 1 1 1 1 1
          1 1 1 1 1 1
          1 1 1 1 1 1
          1 1 1 1 1 1
          1 1 1 1 1 1
          1 1 1 1 1 1
          1 1 1 1 1 1
          1 1 1 1 1 1
          1 1 1 1 1 1
          1 1 1 1 1 1
          1 1 1 1 1 1
          1 1 1 1 1 1
          1 1 1 1 1 1
          1 1 1 1 1 1
          1 1 1 1 1 1
          1 1 1 1 1 1
          1 1 1 1 1 1
          1 1 1 1 1 1
          1 1 1 1 1 1
          1 1 1 1 1 1
          1 1 1 1 1 1
          1 1 1 1 1 1
          1 1 1 1 1 1
          0.03792630136 0.03792630136 0.040248550475 0.040248550475 0.040084600449 0.040084600449
          0.049479149282 0.049479149282 0.05206605047 0.05206605047 0.05475695245 0.05475695245
          0.055260749534 0.055260749534 0.075239799917 0.075239799917 1 1
          1 1 1 1 1 1
          1 1 1 1 1 1
          1 1 1 1 1 1
          1 1 0.044480500743 0.044480500743 1 1
          1 1 1 1 0.9638029933 0.9638029933
          1 1 1 1 1 1
          0.82369700074 0.82369700074 1 1 1 1
          0.051421999931 0.051421999931 1 1 0.99914100766 0.99914100766
          1 1 1 1 1 1
          1 1 1 1 0.81443300843 0.81443300843
          0.058672649786 0.058672649786 1 1 1 1
          1 1 1 1 0.83703300357 0.83703300357
          0.85252350569 0.85252350569 0.060331400484 0.060331400484 1 1
          1 1 0.99914100766 0.99914100766 0.9863730073 0.9863730073
          0.062187151983 0.062187151983 1 1 0.79784199595 0.79784199595
          0.85166451335 0.85166451335 0.075398851186 0.075398851186 1 1
          0.6694265008 0.6694265008 0.34168089554 0.34168089554 1 1
          0.61227500439 0.61227500439 1 1 0.63133600354 0.63133600354
          1 1 0.64059999585 0.64059999585 1 1
          0.66073000431 0.66073000431 1 1 0.80083599687 0.80083599687
          1 1 0.9501760006 0.9501760006 1 1
          0.9863730073 0.9863730073
        </DataArray>
        <DataArray type="Float32" Name="Texture Coordinates" NumberOfComponents="2" format="ascii" RangeMin="0" RangeMax="1">
          0 0 1 0 0 0
          1 0 0 0 1 0
          0 0 1 0 0 0
          1 0 0 0 1 0
          0 0 1 0 0 0
          1 0 0 0 1 0
          0 0 1 0 0 0
          1 0 0 0 1 0
          0 0 1 0 0 0
          1 0 0 0 1 0
          0 0 1 0 0 0
          1 0 0 0 1 0
          0 0 1 0 0 0
          1 0 0 0 1 0
          0 0 1 0 0 0
          1 0 0 0 1 0
          0 0 1 0 0 0
          1 0 0 0 1 0
          0 0 1 0 0 0
          1 0 0 0 1 0
          0 0 1 0 0 0
          1 0 0 0 1 0
          0 0 1 0 0 0
          1 0 0 0 1 0
          0 0 1 0 0 0
          1 0 0 0 1 0
          0 0 1 0 0 0
          1 0 0 0 1 0
          0 0 1 0 0 0
          1 0 0 0 1 0
          0 0 1 0 0 0
          1 0 0 0 1 0
          0 0 1 0 0 0
          1 0 0 0 1 0
          0 0 1 0 0 0
          1 0 0 0 1 0
          0 0 1 0 0 0
          1 0 0 0 1 0
          0 0 1 0 0 0
          1 0 0 0 1 0
          0 0 1 0 0 0
          1 0 0 0 1 0
          0 0 1 0 0 0
          1 0 0 0 1 0
          0 0 1 0 0 0
          1 0 0 0 1 0
          0 0 1 0 0 0
          1 0 0 0 1 0
          0 0 1 0 0 0
          1 0 0 0 1 0
          0 0 1 0 0 0
          1 0 0 0 1 0
          0 0 1 0 0 0
          1 0 0 0 1 0
          0 0 1 0 0 0
          1 0 0 0 1 0
          0 0 1 0 0 0
          1 0 0 0 1 0
          0 0 1 0 0 0
          1 0 0 0 1 0
          0 0 1 0 0 0
          1 0 0 0 1 0
          0 0 1 0 0 0
          1 0 0 0 1 0
          0 0 1 0 0 0
          1 0 0 0 1 0
          0 0 1 0 0 0
          1 0 0 0 1 0
          0 0 1 0 0 0
          1 0 0 0 1 0
          0 0 1 0 0 0
          1 0 0 0 1 0
          0 0 1 0 0 0
          1 0 0 0 1 0
          0 0 1 0 0 0
          1 0 0 0 1 0
          0 0 1 0 0 0
          1 0 0 0 1 0
          0 0 1 0 0 0
          1 0 0 0 1 0
          0 0 1 0 0 0
          1 0 0 0 1 0
          0 0 1 0 0 0
          1 0 0 0 1 0
          0 0 1 0 0 0
          1 0 0 0 1 0
          0 0 1 0 0 0
          1 0 0 0 1 0
          0 0 1 0 0 0
          1 0 0 0 1 0
          0 0 1 0 0 0
          1 0 0 0 1 0
          0 0 1 0 0 0
          1 0 0 0 1 0
          0 0 1 0
        </DataArray>
      </PointData>
      <CellData>
        <DataArray type="Int32" Name="SegmentationId" format="ascii" RangeMin="0" RangeMax="141">
          0 1 2 3 4 5
          6 7 8 9 10 11
          12 13 14 15 16 17
          18 19 20 21 22 23
          24 25 26 27 28 29
          30 31 32 33 34 35
          36 37 38 39 40 41
          42 43 44 45 46 47
          48 49 50 51 52 53
          54 55 56 57 58 59
          60 61 62 63 64 65
          66 67 68 69 70 71
          72 73 74 75 76 77
          78 79 80 81 82 83
          84 85 86 87 88 89
          90 91 92 93 94 95
          96 97 98 99 100 101
          102 103 104 105 106 107
          108 109 110 111 112 113
          114 115 116 117 118 119
          120 121 122 123 124 125
          126 127 128 129 130 131
          132 133 134 135 136 137
          138 139 140 141
        </DataArray>
        <DataArray type="Int32" Name="Type" format="ascii" RangeMin="-1" RangeMax="-1">
          -1 -1 -1 -1 -1 -1
          -1 -1 -1 -1 -1 -1
          -1 -1 -1 -1 -1 -1
          -1 -1 -1 -1 -1 -1
          -1 -1 -1 -1 -1 -1
          -1 -1 -1 -1 -1 -1
          -1 -1 -1 -1 -1 -1
          -1 -1 -1 -1 -1 -1
          -1 -1 -1 -1 -1 -1
          -1 -1 -1 -1 -1 -1
          -1 -1 -1 -1 -1 -1
          -1 -1 -1 -1 -1 -1
          -1 -1 -1 -1 -1 -1
          -1 -1 -1 -1 -1 -1
          -1 -1 -1 -1 -1 -1
          -1 -1 -1 -1 -1 -1
          -1 -1 -1 -1 -1 -1
          -1 -1 -1 -1 -1 -1
          -1 -1 -1 -1 -1 -1
          -1 -1 -1 -1 -1 -1
          -1 -1 -1 -1 -1 -1
          -1 -1 -1 -1 -1 -1
          -1 -1 -1 -1 -1 -1
          -1 -1 -1 -1
        </DataArray>
        <DataArray type="Int32" Name="RegionSize" format="ascii" RangeMin="0" RangeMax="713724">
          3 0 0 21 0 0
          11 0 3 0 16 2
          10 3 0 17 1 0
          4 0 27 1 3 0
          2 3 0 2 0 6
          10 1 0 20 9 9
          2 1 0 2 1 2
          0 2 0 1 0 1
          0 0 1 0 2 0
          0 0 0 2 0 7
          0 0 0 2 20 1
          0 0 1 4078 1711 1089
          2750 1989 2169 973 1897 10
          46 46 36 7 26 32
          44 38 4 39 1143 20
          82 85 507 57 67 85
          1125 22 55 41734 54 1175
          0 103 0 264 43 1368
          6829 71 112 301 94 6719
          968 9687 651 286 1392 878
          10805 42 4039 3872 181276 10
          2598 713724 0 6439 69 782
          43 1405 11 2312 106 7074
          44 592 153 1569
        </DataArray>
        <DataArray type="Float64" Name="RegionSpan" format="ascii" RangeMin="1" RangeMax="142.11263139">
          1.4142135624 1.4142135624 1 1.4142135624 1.4142135624 1
          2.2360679775 1 1.4142135624 1.4142135624 1.4142135624 1.4142135624
          2 1.4142135624 1 1.4142135624 1.4142135624 1
          1 1 1.4142135624 1.4142135624 1.4142135624 1
          1.4142135624 1.4142135624 1 1.4142135624 1 1.4142135624
          1.4142135624 1.4142135624 1 1.4142135624 2 2
          1.4142135624 2 1 1.4142135624 1.4142135624 1.4142135624
          1 1.4142135624 1 1.4142135624 1 2
          1 1.4142135624 1.4142135624 1 1.4142135624 1
          1 1 1 1.4142135624 1.4142135624 1.4142135624
          1.4142135624 1 1 1.4142135624 1.4142135624 1.4142135624
          1 1 1.4142135624 56 47 44
          41 49 39 35 41 2.2360679775
          2.2360679775 2.4494897428 1.4142135624 1 1.4142135624 2.4494897428
          2.4494897428 1.7320508076 1 1.4142135624 77.103826105 3.3166247904
          1.7320508076 1.4142135624 4.1231056256 2.2360679775 1.4142135624 1.4142135624
          8.3066238629 2.2360679775 1 79.309520236 1.4142135624 12.806248475
          1 1.4142135624 1 2.4494897428 1.4142135624 10.049875621
          65.436992596 1 1.4142135624 2.4494897428 1.4142135624 17.029386366
          10.488088482 142.11263139 9.4339811321 2.2360679775 9.8994949366 14.071247279
          89.140338792 7.0710678119 9.2195444573 11.874342087 114.89995648 3.1622776602
          12.206555616 62.817195098 1 17.492855685 9.9498743711 37.416573868
          7.0710678119 10.392304845 3.1622776602 29.69848481 10.677078252 10.488088482
          7.0710678119 16.031219542 6.4807406984 3
        </DataArray>
      </CellData>
      <Points>
        <DataArray type="Float32" Name="Points" NumberOfComponents="3" format="ascii" RangeMin="3.1622776602" RangeMax="86.602540378">
          -2 25 23 -3 25 24
          -3 27 23 -4 28 23
          -3 27 23 -2 27 23
          0 -15 22 -1 -15 23
          -3 28 22 -4 29 22
          -3 28 22 -2 28 22
          0 -15 22 -1 -13 22
          -3 29 21 -2 29 21
          0 -13 21 -1 -12 21
          -3 29 20 -4 30 20
          -34 1 19 -35 1 20
          -1 -12 20 -2 -11 20
          -34 1 19 -34 3 19
          -33 3 18 -34 4 18
          -33 3 18 -32 3 18
          -10 16 16 -11 16 17
          -34 4 17 -35 5 17
          -33 4 17 -32 4 17
          -10 16 16 -10 17 16
          -34 5 16 -33 5 16
          15 -20 15 14 -20 16
          -10 17 15 -11 18 15
          15 -19 15 14 -18 15
          15 -19 15 16 -19 15
          -33 5 14 -34 6 14
          15 -18 14 14 -17 14
          15 -18 14 16 -18 14
          15 -17 13 14 -16 13
          15 -17 13 16 -17 13
          7 39 11 6 39 12
          -26 34 11 -27 34 12
          6 20 12 5 21 12
          6 20 12 7 20 12
          18 4 11 17 4 12
          7 39 11 7 41 11
          -26 34 11 -26 36 11
          -1 27 11 -2 28 11
          4 22 11 6 22 11
          7 21 11 8 21 11
          18 4 11 17 5 11
          14 -16 11 13 -15 11
          8 41 10 7 42 10
          8 41 10 9 41 10
          -25 36 10 -26 37 10
          -25 36 10 -24 36 10
          -1 28 10 -2 29 10
          -1 28 10 0 28 10
          4 23 10 6 23 10
          7 22 10 8 22 10
          17 5 10 16 6 10
          7 42 9 6 43 9
          8 42 9 9 42 9
          -25 37 9 -26 38 9
          -25 37 9 -24 37 9
          -1 29 9 0 29 9
          4 24 9 5 24 9
          7 43 8 8 43 8
          0 29 8 -1 30 8
          -26 38 7 -27 39 7
          1 -3 5 0 -3 6
          1 -2 5 0 -1 5
          1 -2 5 2 -2 5
          1 -1 4 2 -1 4
          2 -1 3 1 0 3
          -14 17 -8 -15 17 -7
          -14 17 -8 -15 18 -8
          -14 17 -8 -13 17 -8
          -14 18 -9 -13 18 -9
          -14 18 -10 -15 19 -10
          50 -50 -50 50 6 -50
          -50 -50 -50 -3 -50 -50
          50 50 -50 50 6 -50
          50 -50 50 50 -50 9
          50 50 50 50 1 50
          -50 -50 50 -50 -50 11
          -50 50 -50 -50 15 -50
          -50 50 50 -9 50 50
          -2 25 23 -3 27 23
          0 -13 21 0 -15 22
          -33 3 18 -34 1 19
          -10 17 15 -10 16 16
          15 -20 15 15 -19 15
          6 21 11 6 20 12
          8 41 10 7 39 11
          -25 36 10 -26 34 11
          17 5 10 18 4 11
          1 -3 5 1 -2 5
          -14 18 -9 -14 17 -8
          50 6 -50 -3 -50 -50
          -3 28 22 -2 25 23
          -1 -12 20 0 -13 21
          -33 4 17 -33 3 18
          -8 19 12 -10 17 15
          15 -18 14 15 -20 15
          8 42 9 8 41 10
          -25 37 9 -25 36 10
          10 9 8 17 5 10
          1 -1 4 1 -3 5
          -14 18 -10 -14 18 -9
          -3 -50 -50 50 -50 9
          -3 29 21 -3 28 22
          5 -20 12 -1 -12 20
          -34 4 17 -33 4 17
          15 -17 13 15 -18 14
          7 42 9 8 42 9
          -26 38 7 -25 37 9
          2 -1 3 1 -1 4
          -22 19 -4 -14 18 -10
          50 -50 9 50 1 50
          -3 29 20 -3 29 21
          -34 5 16 -34 4 17
          14 -16 11 15 -17 13
          7 43 8 7 42 9
          -15 25 7 -26 38 7
          0 -10 8 2 -1 3
          50 1 50 -50 15 -50
          -1 27 11 -3 29 20
          -33 5 14 -34 5 16
          5 -20 12 14 -16 11
          2 30 6 7 43 8
          -50 15 -50 -50 -50 11
          4 22 11 -1 27 11
          -33 11 7 -33 5 14
          0 -10 8 5 -20 12
          -50 -50 11 -9 50 50
          7 21 11 4 22 11
          8 -1 6 0 -10 8
          -9 50 50 -33 11 7
          6 21 11 7 21 11
          -33 11 7 -22 19 -4
          -1 28 10 6 21 11
          -22 19 -4 8 -1 6
          4 23 10 -1 28 10
          8 -1 6 10 9 8
          7 22 10 4 23 10
          10 9 8 -15 25 7
          -1 29 9 7 22 10
          -15 25 7 -8 19 12
          4 24 9 -1 29 9
          -8 19 12 2 30 6
          0 29 8 4 24 9
          2 30 6 0 29 8
        </DataArray>
      </Points>
      <Verts>
        <DataArray type="Int64" Name="connectivity" format="ascii" RangeMin="1e+299" RangeMax="-1e+299">
        </DataArray>
        <DataArray type="Int64" Name="offsets" format="ascii" RangeMin="1e+299" RangeMax="-1e+299">
        </DataArray>
      </Verts>
      <Lines>
        <DataArray type="Int64" Name="connectivity" format="ascii" RangeMin="0" RangeMax="283">
          0 1 2 3 4 5
          6 7 8 9 10 11
          12 13 14 15 16 17
          18 19 20 21 22 23
          24 25 26 27 28 29
          30 31 32 33 34 35
          36 37 38 39 40 41
          42 43 44 45 46 47
          48 49 50 51 52 53
          54 55 56 57 58 59
          60 61 62 63 64 65
          66 67 68 69 70 71
          72 73 74 75 76 77
          78 79 80 81 82 83
          84 85 86 87 88 89
          90 91 92 93 94 95
          96 97 98 99 100 101
          102 103 104 105 106 107
          108 109 110 111 112 113
          114 115 116 117 118 119
          120 121 122 123 124 125
          126 127 128 129 130 131
          132 133 134 135 136 137
          138 139 140 141 142 143
          144 145 146 147 148 149
          150 151 152 153 154 155
          156 157 158 159 160 161
          162 163 164 165 166 167
          168 169 170 171 172 173
          174 175 176 177 178 179
          180 181 182 183 184 185
          186 187 188 189 190 191
          192 193 194 195 196 197
          198 199 200 201 202 203
          204 205 206 207 208 209
          210 211 212 213 214 215
          216 217 218 219 220 221
          222 223 224 225 226 227
          228 229 230 231 232 233
          234 235 236 237 238 239
          240 241 242 243 244 245
          246 247 248 249 250 251
          252 253 254 255 256 257
          258 259 260 261 262 263
          264 265 266 267 268 269
          270 271 272 273 274 275
          276 277 278 279 280 281
          282 283
        </DataArray>
        <DataArray type="Int64" Name="offsets" format="ascii" RangeMin="2" RangeMax="284">
          2 4 6 8 10 12
          14 16 18 20 22 24
          26 28 30 32 34 36
          38 40 42 44 46 48
          50 52 54 56 58 60
          62 64 66 68 70 72
          74 76 78 80 82 84
          86 88 90 92 94 96
          98 100 102 104 106 108
          110 112 114 116 118 120
          122 124 126 128 130 132
          134 136 138 140 142 144
          146 148 150 152 154 156
          158 160 162 164 166 168
          170 172 174 176 178 180
          182 184 186 188 190 192
          194 196 198 200 202 204
          206 208 210 212 214 216
          218 220 222 224 226 228
          230 232 234 236 238 240
          242 244 246 248 250 252
          254 256 258 260 262 264
          266 268 270 272 274 276
          278 280 282 284
        </DataArray>
      </Lines>
      <Strips>
        <DataArray type="Int64" Name="connectivity" format="ascii" RangeMin="0" RangeMax="283">
        </DataArray>
        <DataArray type="Int64" Name="offsets" format="ascii" RangeMin="2" RangeMax="284">
        </DataArray>
      </Strips>
      <Polys>
        <DataArray type="Int64" Name="connectivity" format="ascii" RangeMin="0" RangeMax="283">
        </DataArray>
        <DataArray type="Int64" Name="offsets" format="ascii" RangeMin="2" RangeMax="284">
        </DataArray>
      </Polys>
    </Piece>
  </PolyData>
</VTKFile>
