<VTKFile type="PolyData" version="1.0" byte_order="LittleEndian" header_type="UInt64">
  <PolyData>
    <Piece NumberOfPoints="234" NumberOfVerts="0" NumberOfLines="117" NumberOfStrips="0" NumberOfPolys="0">
      <PointData TCoords="Texture Coordinates">
        <DataArray type="Float64" Name="scalars" format="ascii" RangeMin="0.037856999785" RangeMax="1">
          1 1 1 1 1 1
          1 1 1 1 1 1
          1 1 1 1 1 1
          1 1 1 1 1 1
          1 1 1 1 1 1
          1 1 1 1 1 1
          1 1 1 1 1 1
          1 1 1 1 1 1
          1 1 1 1 1 1
          1 1 1 1 1 1
          1 1 1 1 1 1
          1 1 1 1 1 1
          1 1 1 1 1 1
          1 1 1 1 1 1
          1 1 1 1 1 1
          1 1 1 1 1 1
          1 1 1 1 1 1
          1 1 1 1 1 1
          0.037856999785 0.037856999785 0.040508748963 0.040508748963 0.040006000549 0.040006000549
          0.048305299133 0.048305299133 0.051833700389 0.051833700389 0.054982250556 0.054982250556
          0.054938498884 0.054938498884 0.075068149716 0.075068149716 1 1
          1 1 1 1 1 1
          1 1 1 1 1 1
          1 1 1 1 1 1
          0.044614098966 0.044614098966 1 1 1 1
          1 1 1 1 1 1
          1 1 1 1 1 1
          0.88966399431 0.88966399431 0.050653249025 0.050653249025 1 1
          1 1 1 1 0.93079099059 0.93079099059
          1 1 1 1 0.9079014957 0.9079014957
          0.057711899281 0.057711899281 1 1 1 1
          0.84319698811 0.84319698811 1 1 0.060200449079 0.060200449079
          1 1 1 1 0.89314249158 0.89314249158
          0.062255149707 0.062255149707 1 1 1 1
          0.075403500348 0.075403500348 1 1 1 1
          0.38691103831 0.38691103831 1 1 1 1
          0.73286098242 0.73286098242 1 1 1 1
          0.78280648589 0.78280648589 0.89626100659 0.89626100659 0.93079099059 0.93079099059
          0.78940349817 0.78940349817 0.83869248629 0.83869248629 0.80416250229 0.80416250229
        </DataArray>
        <DataArray type="Float32" Name="Texture Coordinates" NumberOfComponents="2" format="ascii" RangeMin="0" RangeMax="1">
          0 0 1 0 0 0
          1 0 0 0 1 0
          0 0 1 0 0 0
          1 0 0 0 1 0
          0 0 1 0 0 0
          1 0 0 0 1 0
          0 0 1 0 0 0
          1 0 0 0 1 0
          0 0 1 0 0 0
          1 0 0 0 1 0
          0 0 1 0 0 0
          1 0 0 0 1 0
          0 0 1 0 0 0
          1 0 0 0 1 0
          0 0 1 0 0 0
          1 0 0 0 1 0
          0 0 1 0 0 0
          1 0 0 0 1 0
          0 0 1 0 0 0
          1 0 0 0 1 0
          0 0 1 0 0 0
          1 0 0 0 1 0
          0 0 1 0 0 0
          1 0 0 0 1 0
          0 0 1 0 0 0
          1 0 0 0 1 0
          0 0 1 0 0 0
          1 0 0 0 1 0
          0 0 1 0 0 0
          1 0 0 0 1 0
          0 0 1 0 0 0
          1 0 0 0 1 0
          0 0 1 0 0 0
          1 0 0 0 1 0
          0 0 1 0 0 0
          1 0 0 0 1 0
          0 0 1 0 0 0
          1 0 0 0 1 0
          0 0 1 0 0 0
          1 0 0 0 1 0
          0 0 1 0 0 0
          1 0 0 0 1 0
          0 0 1 0 0 0
          1 0 0 0 1 0
          0 0 1 0 0 0
          1 0 0 0 1 0
          0 0 1 0 0 0
          1 0 0 0 1 0
          0 0 1 0 0 0
          1 0 0 0 1 0
          0 0 1 0 0 0
          1 0 0 0 1 0
          0 0 1 0 0 0
          1 0 0 0 1 0
          0 0 1 0 0 0
          1 0 0 0 1 0
          0 0 1 0 0 0
          1 0 0 0 1 0
          0 0 1 0 0 0
          1 0 0 0 1 0
          0 0 1 0 0 0
          1 0 0 0 1 0
          0 0 1 0 0 0
          1 0 0 0 1 0
          0 0 1 0 0 0
          1 0 0 0 1 0
          0 0 1 0 0 0
          1 0 0 0 1 0
          0 0 1 0 0 0
          1 0 0 0 1 0
          0 0 1 0 0 0
          1 0 0 0 1 0
          0 0 1 0 0 0
          1 0 0 0 1 0
          0 0 1 0 0 0
          1 0 0 0 1 0
          0 0 1 0 0 0
          1 0 0 0 1 0
        </DataArray>
      </PointData>
      <CellData>
        <DataArray type="Int32" Name="SegmentationId" format="ascii" RangeMin="0" RangeMax="116">
          0 1 2 3 4 5
          6 7 8 9 10 11
          12 13 14 15 16 17
          18 19 20 21 22 23
          24 25 26 27 28 29
          30 31 32 33 34 35
          36 37 38 39 40 41
          42 43 44 45 46 47
          48 49 50 51 52 53
          54 55 56 57 58 59
          60 61 62 63 64 65
          66 67 68 69 70 71
          72 73 74 75 76 77
          78 79 80 81 82 83
          84 85 86 87 88 89
          90 91 92 93 94 95
          96 97 98 99 100 101
          102 103 104 105 106 107
          108 109 110 111 112 113
          114 115 116
        </DataArray>
        <DataArray type="Int32" Name="Type" format="ascii" RangeMin="-1" RangeMax="-1">
          -1 -1 -1 -1 -1 -1
          -1 -1 -1 -1 -1 -1
          -1 -1 -1 -1 -1 -1
          -1 -1 -1 -1 -1 -1
          -1 -1 -1 -1 -1 -1
          -1 -1 -1 -1 -1 -1
          -1 -1 -1 -1 -1 -1
          -1 -1 -1 -1 -1 -1
          -1 -1 -1 -1 -1 -1
          -1 -1 -1 -1 -1 -1
          -1 -1 -1 -1 -1 -1
          -1 -1 -1 -1 -1 -1
          -1 -1 -1 -1 -1 -1
          -1 -1 -1 -1 -1 -1
          -1 -1 -1 -1 -1 -1
          -1 -1 -1 -1 -1 -1
          -1 -1 -1 -1 -1 -1
          -1 -1 -1 -1 -1 -1
          -1 -1 -1 -1 -1 -1
          -1 -1 -1
        </DataArray>
        <DataArray type="Int32" Name="RegionSize" format="ascii" RangeMin="0" RangeMax="720592">
          1 29 18 1 0 5
          0 7 4 2 12 2
          4 0 5 4 0 2
          1 0 8 1 0 0
          0 0 0 18 27 0
          10 4 10 2 0 1
          0 4 3 0 2 0
          0 3 0 0 4 21
          3 3 1 27 3 1
          4286 1627 1159 2495 2102 2178
          1086 1820 22 4 38 26
          6 15 46 6 39 45
          1472 67 49 78 6 41
          85 59 123 1008 33947 98
          81 107 625 114 101 749
          14080 682 451 3445 140 9877
          188 743 5306 13336 15 194
          179808 222 51 720592 20 246
          11001 256 312 664 4254 5455
          373 1390 1019
        </DataArray>
        <DataArray type="Float64" Name="RegionSpan" format="ascii" RangeMin="1" RangeMax="142.01760454">
          1.4142135624 1.4142135624 3 1.4142135624 1 1
          1 1.4142135624 1.4142135624 1.4142135624 2.2360679775 1.4142135624
          1.4142135624 1 1.4142135624 1.4142135624 1 1.4142135624
          1.4142135624 1 1.4142135624 1.4142135624 1 1
          1.4142135624 1 1 1.4142135624 1.4142135624 1
          2.2360679775 1.4142135624 2.2360679775 1.4142135624 1 1.4142135624
          1 1.4142135624 1.4142135624 1 1.4142135624 1
          1 1.4142135624 1.4142135624 1 1.4142135624 1.4142135624
          1.4142135624 1.4142135624 1.4142135624 1.4142135624 1.4142135624 1.4142135624
          56 46 44 41 49 39
          36 40 3.3166247904 1.4142135624 3 1.4142135624
          7 3 2.2360679775 1 1.4142135624 1.7320508076
          77.794601355 1.7320508076 2.4494897428 1.4142135624 7 1.7320508076
          1.7320508076 2.2360679775 2.4494897428 6.3245553203 79.981247802 1.7320508076
          1 1.7320508076 7.874007874 13 1.4142135624 5.9160797831
          65.436992596 11.357816692 14.628738838 10.344080433 1.4142135624 142.01760454
          2.2360679775 15.748015748 15.394804318 88.413799828 9.0553851381 9.2736184955
          114.54693361 3 7.0710678119 62.369864518 2.2360679775 7.874007874
          22.315913604 1.7320508076 2.2360679775 9.3808315196 17.262676502 19.949937343
          33.241540277 8.4852813742 10.440306509
        </DataArray>
      </CellData>
      <Points>
        <DataArray type="Float32" Name="Points" NumberOfComponents="3" format="ascii" RangeMin="3.6055512755" RangeMax="86.602540378">
          -2 -15 22 -3 -15 23
          -2 25 21 -3 25 22
          -2 -15 22 -2 -12 22
          -3 26 21 -4 27 21
          -3 26 21 -2 26 21
          -1 -12 21 -1 -11 21
          -3 27 20 -2 27 20
          -33 1 19 -34 1 20
          0 -11 20 -1 -10 20
          -3 27 19 -4 28 19
          -33 1 19 -32 3 19
          -1 -10 19 -2 -9 19
          -31 3 18 -32 4 18
          -31 3 18 -30 3 18
          -9 14 16 -10 14 17
          -31 4 17 -32 5 17
          -31 4 17 -30 4 17
          -32 5 16 -33 6 16
          13 -19 16 12 -18 16
          13 -19 16 14 -19 16
          13 -18 15 14 -17 15
          13 -16 14 12 -15 14
          13 -16 14 14 -16 14
          15 -17 14 16 -17 14
          13 3 12 12 3 13
          13 -15 13 14 -15 13
          15 -16 13 16 -16 13
          7 37 11 6 37 12
          -24 33 11 -25 33 12
          5 20 12 6 20 12
          13 3 12 14 5 12
          14 -15 12 13 -14 12
          7 37 11 6 39 11
          -24 34 11 -25 35 11
          -24 34 11 -23 34 11
          -1 27 11 -2 28 11
          4 22 11 5 22 11
          15 5 11 14 6 11
          7 39 10 6 40 10
          7 39 10 8 39 10
          -24 35 10 -25 36 10
          -24 35 10 -23 35 10
          -1 28 10 0 28 10
          14 6 10 13 7 10
          6 40 9 5 41 9
          -24 36 9 -23 36 9
          -23 36 8 -24 37 8
          1 0 6 0 0 7
          1 0 6 0 1 6
          1 1 5 0 2 5
          0 2 3 -1 3 3
          -12 16 -5 -13 16 -4
          -12 16 -5 -13 17 -5
          -13 17 -6 -14 18 -6
          50 -50 -50 50 6 -50
          -50 -50 -50 -4 -50 -50
          50 50 -50 50 6 -50
          50 -50 50 50 -50 9
          50 50 50 50 1 50
          -50 -50 50 -50 -50 11
          -50 50 -50 -50 14 -50
          -50 50 50 -10 50 50
          -1 -12 21 -2 -15 22
          -2 25 21 -3 26 21
          -31 3 18 -33 1 19
          13 -18 15 13 -19 16
          6 -16 14 13 -16 14
          15 5 11 13 3 12
          7 39 10 7 37 11
          -24 33 11 -24 34 11
          1 1 5 1 0 6
          -13 17 -6 -12 16 -5
          50 6 -50 -4 -50 -50
          0 -11 20 -1 -12 21
          -3 27 20 -2 25 21
          -31 4 17 -31 3 18
          6 -18 15 13 -18 15
          14 6 10 15 5 11
          6 40 9 7 39 10
          -24 35 10 -24 33 11
          0 2 3 1 1 5
          -11 17 0 -13 17 -6
          -4 -50 -50 50 -50 9
          -1 -10 19 0 -11 20
          -3 27 19 -3 27 20
          -32 5 16 -31 4 17
          7 9 8 14 6 10
          1 28 9 6 40 9
          -24 36 9 -24 35 10
          5 1 6 0 2 3
          50 -50 9 50 1 50
          6 -18 15 -1 -10 19
          -9 14 16 -3 27 19
          -31 10 7 -32 5 16
          -23 36 8 -24 36 9
          50 1 50 -50 14 -50
          6 -16 14 6 -18 15
          5 20 12 -9 14 16
          -15 23 6 -23 36 8
          -50 14 -50 -50 -50 11
          15 -17 14 6 -16 14
          -1 27 11 5 20 12
          -50 -50 11 -10 50 50
          13 -15 13 15 -17 14
          4 22 11 -1 27 11
          -10 50 50 -31 10 7
          15 -16 13 13 -15 13
          -1 28 10 4 22 11
          -31 10 7 -11 17 0
          14 -15 12 15 -16 13
          1 28 9 -1 28 10
          -11 17 0 -15 23 6
          -1 -7 9 14 -15 12
          7 9 8 1 28 9
          -15 23 6 -1 -7 9
          5 1 6 7 9 8
          -1 -7 9 5 1 6
        </DataArray>
      </Points>
      <Verts>
        <DataArray type="Int64" Name="connectivity" format="ascii" RangeMin="1e+299" RangeMax="-1e+299">
        </DataArray>
        <DataArray type="Int64" Name="offsets" format="ascii" RangeMin="1e+299" RangeMax="-1e+299">
        </DataArray>
      </Verts>
      <Lines>
        <DataArray type="Int64" Name="connectivity" format="ascii" RangeMin="0" RangeMax="233">
          0 1 2 3 4 5
          6 7 8 9 10 11
          12 13 14 15 16 17
          18 19 20 21 22 23
          24 25 26 27 28 29
          30 31 32 33 34 35
          36 37 38 39 40 41
          42 43 44 45 46 47
          48 49 50 51 52 53
          54 55 56 57 58 59
          60 61 62 63 64 65
          66 67 68 69 70 71
          72 73 74 75 76 77
          78 79 80 81 82 83
          84 85 86 87 88 89
          90 91 92 93 94 95
          96 97 98 99 100 101
          102 103 104 105 106 107
          108 109 110 111 112 113
          114 115 116 117 118 119
          120 121 122 123 124 125
          126 127 128 129 130 131
          132 133 134 135 136 137
          138 139 140 141 142 143
          144 145 146 147 148 149
          150 151 152 153 154 155
          156 157 158 159 160 161
          162 163 164 165 166 167
          168 169 170 171 172 173
          174 175 176 177 178 179
          180 181 182 183 184 185
          186 187 188 189 190 191
          192 193 194 195 196 197
          198 199 200 201 202 203
          204 205 206 207 208 209
          210 211 212 213 214 215
          216 217 218 219 220 221
          222 223 224 225 226 227
          228 229 230 231 232 233
        </DataArray>
        <DataArray type="Int64" Name="offsets" format="ascii" RangeMin="2" RangeMax="234">
          2 4 6 8 10 12
          14 16 18 20 22 24
          26 28 30 32 34 36
          38 40 42 44 46 48
          50 52 54 56 58 60
          62 64 66 68 70 72
          74 76 78 80 82 84
          86 88 90 92 94 96
          98 100 102 104 106 108
          110 112 114 116 118 120
          122 124 126 128 130 132
          134 136 138 140 142 144
          146 148 150 152 154 156
          158 160 162 164 166 168
          170 172 174 176 178 180
          182 184 186 188 190 192
          194 196 198 200 202 204
          206 208 210 212 214 216
          218 220 222 224 226 228
          230 232 234
        </DataArray>
      </Lines>
      <Strips>
        <DataArray type="Int64" Name="connectivity" format="ascii" RangeMin="0" RangeMax="233">
        </DataArray>
        <DataArray type="Int64" Name="offsets" format="ascii" RangeMin="2" RangeMax="234">
        </DataArray>
      </Strips>
      <Polys>
        <DataArray type="Int64" Name="connectivity" format="ascii" RangeMin="0" RangeMax="233">
        </DataArray>
        <DataArray type="Int64" Name="offsets" format="ascii" RangeMin="2" RangeMax="234">
        </DataArray>
      </Polys>
    </Piece>
  </PolyData>
</VTKFile>
