<VTKFile type="PolyData" version="1.0" byte_order="LittleEndian" header_type="UInt64">
  <PolyData>
    <Piece NumberOfPoints="244" NumberOfVerts="0" NumberOfLines="122" NumberOfStrips="0" NumberOfPolys="0">
      <PointData TCoords="Texture Coordinates">
        <DataArray type="Float64" Name="scalars" format="ascii" RangeMin="0.037845451385" RangeMax="1">
          1 1 1 1 1 1
          1 1 1 1 1 1
          1 1 1 1 1 1
          1 1 1 1 1 1
          1 1 1 1 1 1
          1 1 1 1 1 1
          1 1 1 1 1 1
          1 1 1 1 1 1
          1 1 1 1 1 1
          1 1 1 1 1 1
          1 1 1 1 1 1
          1 1 1 1 1 1
          1 1 1 1 1 1
          1 1 1 1 1 1
          1 1 1 1 1 1
          1 1 1 1 1 1
          1 1 1 1 1 1
          1 1 1 1 1 1
          1 1 0.037845451385 0.037845451385 0.03999165073 0.03999165073
          0.040553798899 0.040553798899 0.048115300015 0.048115300015 0.051795300096 0.051795300096
          0.055022049695 0.055022049695 0.054889699444 0.054889699444 0.075043752789 0.075043752789
          1 1 1 1 1 1
          1 1 1 1 1 1
          1 1 1 1 1 1
          1 1 1 1 0.044637000188 0.044637000188
          1 1 1 1 1 1
          1 1 1 1 1 1
          1 1 0.90595048666 0.90595048666 0.050531199202 0.050531199202
          1 1 1 1 1 1
          0.95445549488 0.95445549488 1 1 1 1
          0.92866250873 0.92866250873 0.05755710043 0.05755710043 1 1
          1 1 1 1 1 1
          1 1 0.060183349997 0.060183349997 1 1
          1 1 0.85195600986 0.85195600986 0.9042994976 0.9042994976
          0.06227224879 0.06227224879 1 1 1 1
          0.075411550701 0.075411550701 1 1 1 1
          0.39565521106 0.39565521106 1 1 1 1
          0.75625550747 0.75625550747 0.95445549488 0.95445549488 1 1
          0.81007948518 0.81007948518 0.88311800361 0.88311800361 1 1
          0.83461299539 0.83461299539 1 1 0.81173047423 0.81173047423
          1 1 0.90577998757 0.90577998757
        </DataArray>
        <DataArray type="Float32" Name="Texture Coordinates" NumberOfComponents="2" format="ascii" RangeMin="0" RangeMax="1">
          0 0 1 0 0 0
          1 0 0 0 1 0
          0 0 1 0 0 0
          1 0 0 0 1 0
          0 0 1 0 0 0
          1 0 0 0 1 0
          0 0 1 0 0 0
          1 0 0 0 1 0
          0 0 1 0 0 0
          1 0 0 0 1 0
          0 0 1 0 0 0
          1 0 0 0 1 0
          0 0 1 0 0 0
          1 0 0 0 1 0
          0 0 1 0 0 0
          1 0 0 0 1 0
          0 0 1 0 0 0
          1 0 0 0 1 0
          0 0 1 0 0 0
          1 0 0 0 1 0
          0 0 1 0 0 0
          1 0 0 0 1 0
          0 0 1 0 0 0
          1 0 0 0 1 0
          0 0 1 0 0 0
          1 0 0 0 1 0
          0 0 1 0 0 0
          1 0 0 0 1 0
          0 0 1 0 0 0
          1 0 0 0 1 0
          0 0 1 0 0 0
          1 0 0 0 1 0
          0 0 1 0 0 0
          1 0 0 0 1 0
          0 0 1 0 0 0
          1 0 0 0 1 0
          0 0 1 0 0 0
          1 0 0 0 1 0
          0 0 1 0 0 0
          1 0 0 0 1 0
          0 0 1 0 0 0
          1 0 0 0 1 0
          0 0 1 0 0 0
          1 0 0 0 1 0
          0 0 1 0 0 0
          1 0 0 0 1 0
          0 0 1 0 0 0
          1 0 0 0 1 0
          0 0 1 0 0 0
          1 0 0 0 1 0
          0 0 1 0 0 0
          1 0 0 0 1 0
          0 0 1 0 0 0
          1 0 0 0 1 0
          0 0 1 0 0 0
          1 0 0 0 1 0
          0 0 1 0 0 0
          1 0 0 0 1 0
          0 0 1 0 0 0
          1 0 0 0 1 0
          0 0 1 0 0 0
          1 0 0 0 1 0
          0 0 1 0 0 0
          1 0 0 0 1 0
          0 0 1 0 0 0
          1 0 0 0 1 0
          0 0 1 0 0 0
          1 0 0 0 1 0
          0 0 1 0 0 0
          1 0 0 0 1 0
          0 0 1 0 0 0
          1 0 0 0 1 0
          0 0 1 0 0 0
          1 0 0 0 1 0
          0 0 1 0 0 0
          1 0 0 0 1 0
          0 0 1 0 0 0
          1 0 0 0 1 0
          0 0 1 0 0 0
          1 0 0 0 1 0
          0 0 1 0 0 0
          1 0
        </DataArray>
      </PointData>
      <CellData>
        <DataArray type="Int32" Name="SegmentationId" format="ascii" RangeMin="0" RangeMax="121">
          0 1 2 3 4 5
          6 7 8 9 10 11
          12 13 14 15 16 17
          18 19 20 21 22 23
          24 25 26 27 28 29
          30 31 32 33 34 35
          36 37 38 39 40 41
          42 43 44 45 46 47
          48 49 50 51 52 53
          54 55 56 57 58 59
          60 61 62 63 64 65
          66 67 68 69 70 71
          72 73 74 75 76 77
          78 79 80 81 82 83
          84 85 86 87 88 89
          90 91 92 93 94 95
          96 97 98 99 100 101
          102 103 104 105 106 107
          108 109 110 111 112 113
          114 115 116 117 118 119
          120 121
        </DataArray>
        <DataArray type="Int32" Name="Type" format="ascii" RangeMin="-1" RangeMax="-1">
          -1 -1 -1 -1 -1 -1
          -1 -1 -1 -1 -1 -1
          -1 -1 -1 -1 -1 -1
          -1 -1 -1 -1 -1 -1
          -1 -1 -1 -1 -1 -1
          -1 -1 -1 -1 -1 -1
          -1 -1 -1 -1 -1 -1
          -1 -1 -1 -1 -1 -1
          -1 -1 -1 -1 -1 -1
          -1 -1 -1 -1 -1 -1
          -1 -1 -1 -1 -1 -1
          -1 -1 -1 -1 -1 -1
          -1 -1 -1 -1 -1 -1
          -1 -1 -1 -1 -1 -1
          -1 -1 -1 -1 -1 -1
          -1 -1 -1 -1 -1 -1
          -1 -1 -1 -1 -1 -1
          -1 -1 -1 -1 -1 -1
          -1 -1 -1 -1 -1 -1
          -1 -1 -1 -1 -1 -1
          -1 -1
        </DataArray>
        <DataArray type="Int32" Name="RegionSize" format="ascii" RangeMin="0" RangeMax="721682">
          27 39 4 0 0 3
          8 0 0 11 4 1
          6 4 5 2 3 31
          3 0 4 0 1 1
          2 0 20 2 0 13
          0 1 0 0 1 1
          0 2 0 0 0 1
          2 1 1 0 1 2
          0 16 3 2 15 9
          3 4307 1168 1612 2456 2115
          2179 1106 1814 49 5 38
          6 0 27 14 5 5
          12 90 1544 170 65 78
          115 49 65 47 902 32694
          377 4 110 485 0 107
          759 15288 983 94 454 91
          141 9941 68 262 2865 5038
          13680 243 417 179638 326 16
          721682 454 196 11356 4219 252
          193 1387 0 1807 267 12
          540 3434
        </DataArray>
        <DataArray type="Float64" Name="RegionSpan" format="ascii" RangeMin="1" RangeMax="142.01760454">
          1.4142135624 1.4142135624 1 1.4142135624 1 1.4142135624
          1.4142135624 1 1 2 1.4142135624 1.4142135624
          1 1.4142135624 1.4142135624 1.4142135624 1.4142135624 1.4142135624
          1.4142135624 1 1.4142135624 1 1.4142135624 1.4142135624
          1.4142135624 1 1.4142135624 1.4142135624 1 3.1622776602
          1 1.4142135624 1 1.4142135624 2 1.4142135624
          1 1.4142135624 1.4142135624 1 1.4142135624 2
          1.4142135624 2 2 1.4142135624 1.4142135624 1.4142135624
          1.4142135624 3.1622776602 1.4142135624 1.4142135624 1.4142135624 2.2360679775
          1.4142135624 56 44 46 41 49
          40 36 40 1.7320508076 1.4142135624 2.4494897428
          7 1 1.4142135624 3.1622776602 1 1.4142135624
          3.7416573868 2.8284271247 77.794601355 2.4494897428 2.4494897428 1.7320508076
          2.4494897428 2.2360679775 2.4494897428 1.7320508076 6.164414003 79.981247802
          14.456832295 2.2360679775 1.7320508076 5.1961524227 1 1.4142135624
          5.1961524227 65.436992596 16.062378404 1.4142135624 3.3166247904 12.529964086
          1.4142135624 142.01760454 8.4852813742 2.4494897428 7.2801098893 14.456832295
          87.726848798 9.2736184955 10.816653826 114.89125293 13.453624047 8.0622577483
          62.369864518 1.4142135624 2.4494897428 20.518284529 32.015621187 1.7320508076
          34.073450075 7.5498344353 1 22.737634002 1.4142135624 26.286878856
          2 16.583123952
        </DataArray>
      </CellData>
      <Points>
        <DataArray type="Float32" Name="Points" NumberOfComponents="3" format="ascii" RangeMin="5.3851648071" RangeMax="86.602540378">
          -3 25 21 -4 25 22
          -1 -12 21 -2 -12 22
          -3 25 21 -3 26 21
          -2 -11 21 -3 -10 21
          -2 -11 21 -1 -11 21
          -2 26 20 -3 27 20
          -32 1 19 -33 1 20
          -2 -10 20 -1 -10 20
          0 -11 20 1 -11 20
          -32 1 19 -32 3 19
          0 -10 19 -1 -9 19
          -3 27 18 -4 28 18
          -31 3 18 -31 4 18
          -9 14 16 -10 14 17
          -30 4 17 -31 5 17
          -1 -9 17 -2 -8 17
          -31 5 16 -32 6 16
          14 -18 15 13 -18 16
          13 -17 15 12 -16 15
          13 -17 15 14 -17 15
          14 -16 14 13 -15 14
          14 -16 14 15 -16 14
          -32 6 13 -33 7 13
          13 3 12 12 3 13
          13 -15 13 12 -14 13
          14 -15 13 15 -15 13
          6 37 11 5 37 12
          -24 32 12 -25 33 12
          -24 32 12 -23 32 12
          13 3 12 12 6 12
          13 -14 12 14 -14 12
          6 38 11 5 39 11
          6 38 11 7 38 11
          -25 34 11 -26 35 11
          -25 34 11 -23 34 11
          -1 27 11 -2 28 11
          5 21 11 6 21 11
          13 6 11 12 7 11
          5 39 10 4 40 10
          6 39 10 7 39 10
          -25 35 10 -26 36 10
          -25 35 10 -23 35 10
          13 -14 10 12 -13 10
          5 40 9 7 40 9
          -25 36 9 -23 36 9
          12 7 9 11 8 9
          6 40 8 5 41 8
          -24 36 8 -25 37 8
          -1 -2 7 -2 -2 8
          -1 -2 7 0 1 7
          1 1 6 0 2 6
          0 2 5 -1 3 5
          -12 15 -4 -13 15 -3
          -12 15 -4 -13 17 -4
          -12 17 -6 -13 18 -6
          50 -50 -50 50 6 -50
          50 50 -50 50 6 -50
          -50 -50 -50 -4 -50 -50
          50 -50 50 50 -50 9
          50 50 50 50 1 50
          -50 -50 50 -50 -50 10
          -50 50 -50 -50 14 -50
          -50 50 50 -10 50 50
          -2 26 20 -3 25 21
          -1 -12 21 -2 -11 21
          -31 3 18 -32 1 19
          6 -17 15 13 -17 15
          13 -16 14 14 -16 14
          -24 33 11 -24 32 12
          13 6 11 13 3 12
          6 37 11 6 38 11
          -24 33 11 -25 34 11
          1 1 6 -1 -2 7
          -12 17 -6 -12 15 -4
          50 6 -50 -4 -50 -50
          -3 27 18 -2 26 20
          -2 -10 20 -1 -12 21
          -30 4 17 -31 3 18
          12 7 9 13 6 11
          6 39 10 6 37 11
          -25 35 10 -24 33 11
          0 2 5 1 1 6
          -11 16 0 -12 17 -6
          -4 -50 -50 50 -50 9
          -9 14 16 -3 27 18
          0 -11 20 -2 -10 20
          -31 5 16 -30 4 17
          7 8 8 12 7 9
          5 39 10 6 39 10
          -25 36 9 -25 35 10
          5 1 6 0 2 5
          50 -50 9 50 1 50
          -1 27 11 -9 14 16
          0 -10 19 0 -11 20
          -32 6 13 -31 5 16
          -1 28 10 5 39 10
          -24 36 8 -25 36 9
          50 1 50 -50 14 -50
          5 21 11 -1 27 11
          -1 -9 17 0 -10 19
          -31 10 7 -32 6 13
          -16 24 7 -24 36 8
          -50 14 -50 -50 -50 10
          -1 28 10 5 21 11
          6 -17 15 -1 -9 17
          -50 -50 10 -10 50 50
          5 40 9 -1 28 10
          14 -18 15 6 -17 15
          -10 50 50 -31 10 7
          6 40 8 5 40 9
          13 -16 14 14 -18 15
          -31 10 7 -16 24 7
          7 8 8 6 40 8
          14 -15 13 13 -16 14
          -16 24 7 -2 -7 9
          5 1 6 7 8 8
          13 -15 13 14 -15 13
          -11 16 0 5 1 6
          13 -14 12 13 -15 13
          -2 -7 9 -11 16 0
          13 -14 10 13 -14 12
          -2 -7 9 13 -14 10
        </DataArray>
      </Points>
      <Verts>
        <DataArray type="Int64" Name="connectivity" format="ascii" RangeMin="1e+299" RangeMax="-1e+299">
        </DataArray>
        <DataArray type="Int64" Name="offsets" format="ascii" RangeMin="1e+299" RangeMax="-1e+299">
        </DataArray>
      </Verts>
      <Lines>
        <DataArray type="Int64" Name="connectivity" format="ascii" RangeMin="0" RangeMax="243">
          0 1 2 3 4 5
          6 7 8 9 10 11
          12 13 14 15 16 17
          18 19 20 21 22 23
          24 25 26 27 28 29
          30 31 32 33 34 35
          36 37 38 39 40 41
          42 43 44 45 46 47
          48 49 50 51 52 53
          54 55 56 57 58 59
          60 61 62 63 64 65
          66 67 68 69 70 71
          72 73 74 75 76 77
          78 79 80 81 82 83
          84 85 86 87 88 89
          90 91 92 93 94 95
          96 97 98 99 100 101
          102 103 104 105 106 107
          108 109 110 111 112 113
          114 115 116 117 118 119
          120 121 122 123 124 125
          126 127 128 129 130 131
          132 133 134 135 136 137
          138 139 140 141 142 143
          144 145 146 147 148 149
          150 151 152 153 154 155
          156 157 158 159 160 161
          162 163 164 165 166 167
          168 169 170 171 172 173
          174 175 176 177 178 179
          180 181 182 183 184 185
          186 187 188 189 190 191
          192 193 194 195 196 197
          198 199 200 201 202 203
          204 205 206 207 208 209
          210 211 212 213 214 215
          216 217 218 219 220 221
          222 223 224 225 226 227
          228 229 230 231 232 233
          234 235 236 237 238 239
          240 241 242 243
        </DataArray>
        <DataArray type="Int64" Name="offsets" format="ascii" RangeMin="2" RangeMax="244">
          2 4 6 8 10 12
          14 16 18 20 22 24
          26 28 30 32 34 36
          38 40 42 44 46 48
          50 52 54 56 58 60
          62 64 66 68 70 72
          74 76 78 80 82 84
          86 88 90 92 94 96
          98 100 102 104 106 108
          110 112 114 116 118 120
          122 124 126 128 130 132
          134 136 138 140 142 144
          146 148 150 152 154 156
          158 160 162 164 166 168
          170 172 174 176 178 180
          182 184 186 188 190 192
          194 196 198 200 202 204
          206 208 210 212 214 216
          218 220 222 224 226 228
          230 232 234 236 238 240
          242 244
        </DataArray>
      </Lines>
      <Strips>
        <DataArray type="Int64" Name="connectivity" format="ascii" RangeMin="0" RangeMax="243">
        </DataArray>
        <DataArray type="Int64" Name="offsets" format="ascii" RangeMin="2" RangeMax="244">
        </DataArray>
      </Strips>
      <Polys>
        <DataArray type="Int64" Name="connectivity" format="ascii" RangeMin="0" RangeMax="243">
        </DataArray>
        <DataArray type="Int64" Name="offsets" format="ascii" RangeMin="2" RangeMax="244">
        </DataArray>
      </Polys>
    </Piece>
  </PolyData>
</VTKFile>
